
# periodic boundary conditions along all three dimensions
boundary p p p

# Set neighbor skin
variable neigh_skin equal 2.0*${_u_distance}
variable neigh_skin equal 2.0*1
neighbor ${neigh_skin} bin
neighbor 2 bin

# create a supercell with cubic lattice (fcc, bcc, sc, or diamond)
# using 10*10*10 conventional (orthogonal) unit cells
variable latticeconst_converted equal 4.032082748413087*${_u_distance}
variable latticeconst_converted equal 4.032082748413087*1
lattice       fcc  ${latticeconst_converted}
lattice       fcc  4.03208274841309
Lattice spacing in x,y,z = 4.03208 4.03208 4.03208
region        simbox  block 0 10 0 10 0 10 units lattice
create_box    1 simbox
Created orthogonal box = (0 0 0) to (40.3208 40.3208 40.3208)
  1 by 1 by 1 MPI processor grid
create_atoms  1 box
Created 4000 atoms
  create_atoms CPU = 0.000647068 secs

variable mass_converted equal 26.981538*${_u_mass}
variable mass_converted equal 26.981538*1

kim_interactions Al
#=== BEGIN kim_interactions ==================================
pair_style kim EAM_CubicNaturalSpline_ErcolessiAdams_1994_Al__MO_800509458712_002
pair_coeff * * Al 
#=== END kim_interactions ====================================


mass          1 ${mass_converted}
mass          1 26.981538

# initial volume
variable      v equal vol        # assign formula
variable      V0 equal ${v}    # evaluate initial value
variable      V0 equal 65552.3565796382    
variable      V0_metal equal ${V0}/(${_u_distance}*${_u_distance}*${_u_distance})
variable      V0_metal equal 65552.3565796382/(${_u_distance}*${_u_distance}*${_u_distance})
variable      V0_metal equal 65552.3565796382/(1*${_u_distance}*${_u_distance})
variable      V0_metal equal 65552.3565796382/(1*1*${_u_distance})
variable      V0_metal equal 65552.3565796382/(1*1*1)
variable      V0_metal_times1000 equal ${V0_metal}*1000
variable      V0_metal_times1000 equal 65552.3565796382*1000

print "Initial system volume: ${V0_metal} Angstroms^3"
Initial system volume: 65552.3565796382 Angstroms^3

# set the time step to 0.001 picoseconds
variable timestep_converted equal 0.001*${_u_time}
variable timestep_converted equal 0.001*1
timestep ${timestep_converted}
timestep 0.001

variable temp_converted equal 293.15*${_u_temperature}
variable temp_converted equal 293.15*1
variable Tdamp_converted equal 0.1*${_u_time}
variable Tdamp_converted equal 0.1*1
variable press_converted equal 0.0*${_u_pressure}
variable press_converted equal 0.0*1
variable Pdamp_converted equal 1*${_u_time}
variable Pdamp_converted equal 1*1

# create initial velocities consistent with the chosen temperature
velocity      all create ${temp_converted} 17 mom yes rot yes
velocity      all create 293.15 17 mom yes rot yes

# set NPT ensemble for all atoms
fix           ensemble all npt temp ${temp_converted} ${temp_converted} ${Tdamp_converted}               iso ${press_converted} ${press_converted} ${Pdamp_converted}
fix           ensemble all npt temp 293.15 ${temp_converted} ${Tdamp_converted}               iso ${press_converted} ${press_converted} ${Pdamp_converted}
fix           ensemble all npt temp 293.15 293.15 ${Tdamp_converted}               iso ${press_converted} ${press_converted} ${Pdamp_converted}
fix           ensemble all npt temp 293.15 293.15 0.1               iso ${press_converted} ${press_converted} ${Pdamp_converted}
fix           ensemble all npt temp 293.15 293.15 0.1               iso 0 ${press_converted} ${Pdamp_converted}
fix           ensemble all npt temp 293.15 293.15 0.1               iso 0 0 ${Pdamp_converted}
fix           ensemble all npt temp 293.15 293.15 0.1               iso 0 0 1

# compute the time averages of pressure, temperature, and volume, respectively
# ignore the first 5000 timesteps
variable      etotal_metal equal etotal/${_u_energy}
variable      etotal_metal equal etotal/1
variable      pe_metal equal pe/${_u_energy}
variable      pe_metal equal pe/1
variable      T_metal equal temp/${_u_temperature}
variable      T_metal equal temp/1
variable      V_metal equal vol/(${_u_distance}*${_u_distance}*${_u_distance})
variable      V_metal equal vol/(1*${_u_distance}*${_u_distance})
variable      V_metal equal vol/(1*1*${_u_distance})
variable      V_metal equal vol/(1*1*1)
variable      P_metal equal press/${_u_pressure}
variable      P_metal equal press/1
fix           avgmyTemp  all ave/time 5 20 100 v_T_metal  ave running start 5000
fix           avgmyPress all ave/time 5 20 100 v_P_metal ave running start 5000
fix           avgmyVol   all ave/time 5 20 100 v_V_metal   ave running start 5000

# extract fix quantities into variables so they can be used in if-else logic later.
variable      T equal f_avgmyTemp
variable      P equal f_avgmyPress
variable      V equal f_avgmyVol

# set error bounds for temperature and pressure in original metal units (K and bar)
variable      T_low equal  "293.15 - 0.2"
variable      T_up  equal  "293.15 + 0.2"
variable      P_low equal  "0.0 - 0.2"
variable      P_up  equal  "0.0 + 0.2"

# print to logfile every 1000 timesteps
thermo_style  custom step etotal v_etotal_metal pe v_pe_metal               temp v_T_metal vol v_V_metal press v_P_metal
thermo        1

# Run a simulation for at most 2000*1000 timesteps. At each 1000th time step, check
# whether the temperature and pressure have converged. If yes, break.
label top
variable a loop 200
run 1000
Neighbor list info ...
  update every 1 steps, delay 10 steps, check yes
  max neighbors/atom: 2000, page size: 100000
  master list distance cutoff = 7.55805
  ghost atom cutoff = 7.55805
  binsize = 3.77903, bins = 11 11 11
  1 neighbor lists, perpetual/occasional/extra = 1 0 0
  (1) pair kim, perpetual
      attributes: full, newton off, cut 7.55805
      pair build: full/bin/atomonly
      stencil: full/bin/3d
      bin: standard
Per MPI rank memory allocation (min/avg/max) = 5.37 | 5.37 | 5.37 Mbytes
Step TotEng v_etotal_metal PotEng v_pe_metal Temp v_T_metal Volume v_V_metal Press v_P_metal 
       0   -13288.467   -13288.467       -13440       -13440       293.15       293.15    65552.357    65552.357    2469.1021    2469.1021 
       1   -13288.467   -13288.467    -13439.76    -13439.76    292.68508    292.68508    65552.455    65552.455    2473.2863    2473.2863 
       2   -13288.467   -13288.467   -13439.041   -13439.041    291.29436    291.29436     65552.75     65552.75    2486.2839    2486.2839 
       3   -13288.467   -13288.467    -13437.85    -13437.85    288.99025    288.99025    65553.243    65553.243    2509.3114    2509.3114 
       4   -13288.467   -13288.467   -13436.197   -13436.197    285.79357    285.79357    65553.936    65553.936    2542.7103    2542.7103 
       5   -13288.466   -13288.466   -13434.097   -13434.097    281.73305    281.73305    65554.832    65554.832    2586.2034    2586.2034 
       6   -13288.463   -13288.463   -13431.568   -13431.568    276.84489    276.84489    65555.933    65555.933    2639.3461    2639.3461 
       7    -13288.46    -13288.46   -13428.632   -13428.632    271.17197    271.17197    65557.245    65557.245    2702.1933    2702.1933 
       8   -13288.455   -13288.455   -13425.314   -13425.314    264.76219    264.76219    65558.772    65558.772    2776.9588    2776.9588 
       9   -13288.448   -13288.448   -13421.639   -13421.639     257.6666     257.6666     65560.52     65560.52     2867.389     2867.389 
      10   -13288.438   -13288.438   -13417.635   -13417.635    249.93896    249.93896    65562.497    65562.497    2976.8947    2976.8947 
      11   -13288.426   -13288.426    -13413.33    -13413.33    241.63612    241.63612    65564.711    65564.711    3107.9095    3107.9095 
      12    -13288.41    -13288.41   -13408.757   -13408.757    232.81886    232.81886    65567.172    65567.172    3260.7609    3260.7609 
      13   -13288.391   -13288.391   -13403.948   -13403.948    223.55255    223.55255    65569.893    65569.893    3433.9575    3433.9575 
      14   -13288.368   -13288.368   -13398.939   -13398.939    213.90754    213.90754    65572.888    65572.888    3624.3224    3624.3224 
      15   -13288.341   -13288.341    -13393.77    -13393.77    203.95895    203.95895    65576.172    65576.172    3828.3905    3828.3905 
      16    -13288.31    -13288.31   -13388.481   -13388.481    193.78607    193.78607    65579.761    65579.761    4042.3984    4042.3984 
      17   -13288.276   -13288.276   -13383.115   -13383.115    183.47159    183.47159    65583.673    65583.673    4262.3728    4262.3728 
      18   -13288.239   -13288.239   -13377.717   -13377.717    173.10088    173.10088    65587.924    65587.924    4483.3308    4483.3308 
      19   -13288.199   -13288.199   -13372.332   -13372.332    162.76082    162.76082    65592.533    65592.533    4702.5156    4702.5156 
      20   -13288.157   -13288.157   -13367.006   -13367.006    152.53871    152.53871    65597.517    65597.517    4915.2852    4915.2852 
      21   -13288.113   -13288.113   -13361.783   -13361.783    142.52119    142.52119    65602.893    65602.893    5118.4755    5118.4755 
      22   -13288.067   -13288.067    -13356.71    -13356.71     132.7931     132.7931    65608.677    65608.677    5308.2284    5308.2284 
      23   -13288.022   -13288.022   -13351.828   -13351.828    123.43629    123.43629    65614.885    65614.885    5481.2255    5481.2255 
      24   -13287.977   -13287.977   -13347.178   -13347.178     114.5284     114.5284    65621.531    65621.531    5635.4056    5635.4056 
      25   -13287.933   -13287.933   -13342.798   -13342.798    106.14164    106.14164    65628.626    65628.626    5768.5286    5768.5286 
      26    -13287.89    -13287.89   -13338.724   -13338.724    98.341873    98.341873    65636.182    65636.182    5878.1174    5878.1174 
      27    -13287.85    -13287.85   -13334.986   -13334.986    91.187696    91.187696    65644.208    65644.208    5962.4677    5962.4677 
      28   -13287.813   -13287.813   -13331.611   -13331.611    84.729656    84.729656    65652.709    65652.709    6019.0601    6019.0601 
      29   -13287.779   -13287.779    -13328.62    -13328.62    79.009543    79.009543    65661.691    65661.691    6046.7571    6046.7571 
      30   -13287.749   -13287.749   -13326.031   -13326.031    74.059743    74.059743    65671.156    65671.156    6044.6785    6044.6785 
      31   -13287.721   -13287.721   -13323.855   -13323.855    69.902871    69.902871    65681.103    65681.103    6012.1057    6012.1057 
      32   -13287.698   -13287.698   -13322.099   -13322.099    66.551485    66.551485     65691.53     65691.53    5949.2918    5949.2918 
      33   -13287.677   -13287.677   -13320.764   -13320.764    64.008022    64.008022    65702.432    65702.432    5856.9987    5856.9987 
      34   -13287.659   -13287.659   -13319.845   -13319.845    62.264968    62.264968    65713.801    65713.801    5735.3539    5735.3539 
      35   -13287.644   -13287.644   -13319.333   -13319.333    61.305184    61.305184    65725.628    65725.628    5585.2543    5585.2543 
      36   -13287.629   -13287.629   -13319.214   -13319.214    61.102376    61.102376    65737.899    65737.899    5407.9717    5407.9717 
      37   -13287.616   -13287.616   -13319.469   -13319.469    61.621735    61.621735      65750.6      65750.6    5205.2225    5205.2225 
      38   -13287.602   -13287.602   -13320.075   -13320.075    62.820742    62.820742    65763.714    65763.714    4978.8322    4978.8322 
      39   -13287.587   -13287.587   -13321.006   -13321.006    64.650072    64.650072    65777.224    65777.224    4730.7866    4730.7866 
      40   -13287.571   -13287.571   -13322.232   -13322.232    67.054645    67.054645    65791.107    65791.107    4462.8354    4462.8354 
      41   -13287.552   -13287.552   -13323.723   -13323.723    69.974736    69.974736    65805.343    65805.343    4178.0284    4178.0284 
      42    -13287.53    -13287.53   -13325.444   -13325.444    73.347092    73.347092    65819.907    65819.907     3878.138     3878.138 
      43   -13287.503   -13287.503    -13327.36    -13327.36    77.106082    77.106082    65834.775    65834.775    3566.2576    3566.2576 
      44   -13287.472   -13287.472   -13329.437   -13329.437    81.184857    81.184857     65849.92     65849.92     3244.827     3244.827 
      45   -13287.435   -13287.435   -13331.639   -13331.639    85.516405    85.516405    65865.315    65865.315    2916.4297    2916.4297 
      46   -13287.392   -13287.392   -13333.931   -13333.931    90.034524    90.034524    65880.934    65880.934    2583.2058    2583.2058 
      47   -13287.341   -13287.341    -13336.28    -13336.28    94.674749    94.674749    65896.748    65896.748    2248.5686    2248.5686 
      48   -13287.284   -13287.284   -13338.652   -13338.652    99.375134    99.375134    65912.729    65912.729    1914.6765    1914.6765 
      49   -13287.219   -13287.219   -13341.018   -13341.018    104.07697    104.07697     65928.85     65928.85    1583.6982    1583.6982 
      50   -13287.146   -13287.146   -13343.348   -13343.348    108.72535    108.72535    65945.081    65945.081    1257.1867    1257.1867 
      51   -13287.066   -13287.066   -13345.616   -13345.616     113.2696     113.2696    65961.395    65961.395    937.25725    937.25725 
      52   -13286.977   -13286.977   -13347.799   -13347.799    117.66361    117.66361    65977.766    65977.766    625.13686    625.13686 
      53    -13286.88    -13286.88   -13349.874   -13349.874    121.86607    121.86607    65994.166    65994.166    322.41965    322.41965 
      54   -13286.776   -13286.776   -13351.824   -13351.824    125.84058    125.84058    66010.571    66010.571    29.615008    29.615008 
      55   -13286.663   -13286.663   -13353.632   -13353.632     129.5557     129.5557    66026.955    66026.955   -252.59189   -252.59189 
      56   -13286.544   -13286.544   -13355.286   -13355.286    132.98517    132.98517    66043.293    66043.293   -523.32907   -523.32907 
      57   -13286.418   -13286.418   -13356.773   -13356.773    136.10792    136.10792    66059.564    66059.564   -782.07745   -782.07745 
      58   -13286.285   -13286.285   -13358.088   -13358.088    138.90795    138.90795    66075.744    66075.744   -1029.1359   -1029.1359 
      59   -13286.146   -13286.146   -13359.224   -13359.224    141.37422    141.37422    66091.813    66091.813   -1264.2725   -1264.2725 
      60   -13286.002   -13286.002   -13360.179   -13360.179    143.50061    143.50061     66107.75     66107.75   -1487.9286   -1487.9286 
      61   -13285.853   -13285.853   -13360.953   -13360.953    145.28564    145.28564    66123.537    66123.537   -1699.6297   -1699.6297 
      62     -13285.7     -13285.7   -13361.547   -13361.547    146.73241    146.73241    66139.155    66139.155   -1900.6399   -1900.6399 
      63   -13285.542   -13285.542   -13361.967   -13361.967    147.84845    147.84845    66154.586    66154.586   -2090.6488   -2090.6488 
      64   -13285.382   -13285.382   -13362.218   -13362.218    148.64553    148.64553    66169.816    66169.816   -2270.0563   -2270.0563 
      65   -13285.218   -13285.218    -13362.31    -13362.31    149.13937    149.13937    66184.828    66184.828   -2438.6925   -2438.6925 
      66   -13285.052   -13285.052   -13362.253   -13362.253    149.34916    149.34916    66199.608    66199.608   -2598.0769   -2598.0769 
      67   -13284.885   -13284.885   -13362.058   -13362.058    149.29726    149.29726    66214.143    66214.143   -2748.5217   -2748.5217 
      68   -13284.715   -13284.715    -13361.74    -13361.74    149.00892    149.00892     66228.42     66228.42    -2891.381    -2891.381 
      69   -13284.545   -13284.545   -13361.312   -13361.312    148.51204    148.51204    66242.427    66242.427   -3025.4536   -3025.4536 
      70   -13284.374   -13284.374   -13360.792   -13360.792    147.83681    147.83681    66256.153    66256.153   -3152.2808   -3152.2808 
      71   -13284.202   -13284.202   -13360.196   -13360.196    147.01515    147.01515    66269.587    66269.587   -3271.6898   -3271.6898 
      72    -13284.03    -13284.03   -13359.541   -13359.541    146.08024    146.08024     66282.72     66282.72   -3384.9798   -3384.9798 
      73   -13283.858   -13283.858   -13358.844   -13358.844    145.06606    145.06606    66295.541    66295.541   -3492.5996   -3492.5996 
      74   -13283.686   -13283.686   -13358.125   -13358.125    144.00684    144.00684    66308.044    66308.044   -3595.3688   -3595.3688 
      75   -13283.515   -13283.515     -13357.4     -13357.4    142.93667    142.93667    66320.219    66320.219   -3694.3047   -3694.3047 
      76   -13283.343   -13283.343   -13356.687   -13356.687      141.889      141.889    66332.058    66332.058    -3789.601    -3789.601 
      77   -13283.173   -13283.173   -13356.003   -13356.003    140.89608    140.89608    66343.554    66343.554   -3882.3814   -3882.3814 
      78   -13283.002   -13283.002   -13355.364   -13355.364    139.98847    139.98847      66354.7      66354.7   -3973.0903   -3973.0903 
      79   -13282.832   -13282.832   -13354.784   -13354.784    139.19473    139.19473     66365.49     66365.49   -4062.1139   -4062.1139 
      80   -13282.663   -13282.663   -13354.276   -13354.276    138.54111    138.54111    66375.915    66375.915   -4149.8376   -4149.8376 
      81   -13282.493   -13282.493   -13353.854   -13353.854     138.0512     138.0512    66385.971    66385.971    -4237.152    -4237.152 
      82   -13282.324   -13282.324   -13353.527   -13353.527    137.74569    137.74569    66395.649    66395.649   -4324.1533   -4324.1533 
      83   -13282.156   -13282.156   -13353.304   -13353.304      137.642      137.642    66404.945    66404.945   -4411.4918   -4411.4918 
      84   -13281.987   -13281.987   -13353.193   -13353.193      137.754      137.754    66413.851    66413.851   -4500.0355   -4500.0355 
      85   -13281.818   -13281.818   -13353.199   -13353.199    138.09198    138.09198    66422.362    66422.362   -4589.0056   -4589.0056 
      86   -13281.649   -13281.649   -13353.325   -13353.325    138.66257    138.66257    66430.471    66430.471   -4678.4772   -4678.4772 
      87   -13281.479   -13281.479   -13353.572   -13353.572    139.46876    139.46876    66438.172    66438.172    -4768.649    -4768.649 
      88   -13281.309   -13281.309    -13353.94    -13353.94    140.50973    140.50973    66445.458    66445.458   -4859.6009   -4859.6009 
      89   -13281.138   -13281.138   -13354.427   -13354.427    141.78102    141.78102    66452.324    66452.324   -4950.5406   -4950.5406 
      90   -13280.967   -13280.967   -13355.027   -13355.027     143.2748     143.2748    66458.762    66458.762   -5041.1347   -5041.1347 
      91   -13280.795   -13280.795   -13355.736   -13355.736    144.97996    144.97996    66464.767    66464.767    -5131.601    -5131.601 
      92   -13280.621   -13280.621   -13356.546   -13356.546    146.88224    146.88224    66470.333    66470.333   -5220.7619   -5220.7619 
      93   -13280.447   -13280.447   -13357.449   -13357.449    148.96447    148.96447    66475.453    66475.453   -5308.0121   -5308.0121 
      94   -13280.272   -13280.272   -13358.432   -13358.432    151.20672    151.20672    66480.123    66480.123   -5393.4153   -5393.4153 
      95   -13280.096   -13280.096   -13359.487   -13359.487    153.58682    153.58682    66484.336    66484.336   -5476.0339   -5476.0339 
      96   -13279.919   -13279.919   -13360.598   -13360.598    156.08071    156.08071    66488.087    66488.087   -5554.6974   -5554.6974 
      97    -13279.74    -13279.74   -13361.755   -13361.755    158.66278    158.66278    66491.371    66491.371   -5628.9434   -5628.9434 
      98   -13279.561   -13279.561   -13362.942   -13362.942    161.30619    161.30619    66494.183    66494.183   -5698.1623   -5698.1623 
      99   -13279.381   -13279.381   -13364.146   -13364.146    163.98332    163.98332     66496.52     66496.52   -5761.7852   -5761.7852 
     100     -13279.2     -13279.2   -13365.352   -13365.352    166.66593    166.66593    66498.378    66498.378   -5819.4767   -5819.4767 
     101   -13279.019   -13279.019   -13366.545   -13366.545    169.32548    169.32548    66499.754    66499.754   -5870.8254   -5870.8254 
     102   -13278.837   -13278.837   -13367.711   -13367.711    171.93344    171.93344    66500.645    66500.645   -5914.7514   -5914.7514 
     103   -13278.654   -13278.654   -13368.836   -13368.836    174.46164    174.46164    66501.049    66501.049   -5950.8619   -5950.8619 
     104   -13278.472   -13278.472   -13369.905   -13369.905    176.88258    176.88258    66500.964    66500.964   -5978.7297   -5978.7297 
     105    -13278.29    -13278.29   -13370.904   -13370.904     179.1698     179.1698    66500.392    66500.392   -5997.0199   -5997.0199 
     106   -13278.107   -13278.107   -13371.822   -13371.822    181.29812    181.29812    66499.331    66499.331    -6006.819    -6006.819 
     107   -13277.925   -13277.925   -13372.646   -13372.646    183.24394    183.24394    66497.782    66497.782   -6006.8656   -6006.8656 
     108   -13277.744   -13277.744   -13373.365   -13373.365    184.98561    184.98561    66495.747    66495.747   -5996.5524   -5996.5524 
     109   -13277.564   -13277.564   -13373.969   -13373.969    186.50361    186.50361    66493.229    66493.229    -5976.117    -5976.117 
     110   -13277.384   -13277.384    -13374.45    -13374.45    187.78059    187.78059    66490.232    66490.232   -5945.3082   -5945.3082 
     111   -13277.205   -13277.205   -13374.799   -13374.799    188.80163    188.80163    66486.758    66486.758   -5903.9937   -5903.9937 
     112   -13277.028   -13277.028   -13375.011   -13375.011     189.5544     189.5544    66482.815    66482.815   -5852.1164   -5852.1164 
     113   -13276.852   -13276.852    -13375.08    -13375.08    190.02926    190.02926    66478.407    66478.407   -5789.1485   -5789.1485 
     114   -13276.678   -13276.678   -13375.004   -13375.004    190.21952    190.21952    66473.541    66473.541   -5715.5954   -5715.5954 
     115   -13276.505   -13276.505   -13374.781   -13374.781    190.12156    190.12156    66468.225    66468.225   -5631.4579   -5631.4579 
     116   -13276.334   -13276.334    -13374.41    -13374.41    189.73481    189.73481    66462.468    66462.468    -5536.786    -5536.786 
     117   -13276.164   -13276.164   -13373.892   -13373.892    189.06173    189.06173    66456.279    66456.279   -5431.9771   -5431.9771 
     118   -13275.996   -13275.996   -13373.232   -13373.232    188.10795    188.10795    66449.669    66449.669   -5316.6188   -5316.6188 
     119   -13275.831   -13275.831   -13372.432   -13372.432    186.88221    186.88221    66442.649    66442.649   -5191.4184   -5191.4184 
     120   -13275.666   -13275.666     -13371.5     -13371.5    185.39627    185.39627     66435.23     66435.23   -5056.8108   -5056.8108 
     121   -13275.504   -13275.504   -13370.443   -13370.443    183.66481    183.66481    66427.425    66427.425   -4912.4114   -4912.4114 
     122   -13275.344   -13275.344   -13369.269   -13369.269    181.70528    181.70528    66419.248    66419.248   -4759.4399   -4759.4399 
     123   -13275.185   -13275.185    -13367.99    -13367.99    179.53784    179.53784    66410.712    66410.712   -4598.5767   -4598.5767 
     124   -13275.028   -13275.028   -13366.617   -13366.617    177.18511    177.18511    66401.833    66401.833   -4429.8264   -4429.8264 
     125   -13274.872   -13274.872   -13365.162   -13365.162    174.67185    174.67185    66392.626    66392.626   -4253.7836   -4253.7836 
     126   -13274.718   -13274.718    -13363.64    -13363.64    172.02482    172.02482    66383.107    66383.107   -4072.1587   -4072.1587 
     127   -13274.565   -13274.565   -13362.064   -13362.064    169.27232    169.27232    66373.292    66373.292   -3884.5654   -3884.5654 
     128   -13274.414   -13274.414   -13360.451   -13360.451    166.44378    166.44378    66363.197    66363.197    -3691.557    -3691.557 
     129   -13274.264   -13274.264   -13358.815   -13358.815    163.56962    163.56962    66352.841    66352.841    -3494.602    -3494.602 
     130   -13274.115   -13274.115   -13357.172   -13357.172    160.68101    160.68101    66342.241    66342.241    -3294.644    -3294.644 
     131   -13273.966   -13273.966    -13355.54    -13355.54    157.80947    157.80947    66331.414    66331.414   -3092.1814   -3092.1814 
     132   -13273.819   -13273.819   -13353.933   -13353.933    154.98648    154.98648    66320.378    66320.378   -2888.2681   -2888.2681 
     133   -13273.672   -13273.672   -13352.368   -13352.368    152.24315    152.24315    66309.151    66309.151   -2684.5504   -2684.5504 
     134   -13273.526   -13273.526   -13350.861   -13350.861    149.60983    149.60983     66297.75     66297.75   -2481.5302   -2481.5302 
     135   -13273.379   -13273.379   -13349.425   -13349.425    147.11565    147.11565    66286.195    66286.195   -2279.9575   -2279.9575 
     136   -13273.234   -13273.234   -13348.076   -13348.076    144.78825    144.78825    66274.501    66274.501   -2081.0125   -2081.0125 
     137   -13273.088   -13273.088   -13346.827   -13346.827    142.65352    142.65352    66262.687    66262.687   -1886.1646   -1886.1646 
     138   -13272.941   -13272.941   -13345.689   -13345.689    140.73519    140.73519    66250.768    66250.768   -1695.2541   -1695.2541 
     139   -13272.795   -13272.795   -13344.674   -13344.674     139.0545     139.0545    66238.763    66238.763   -1509.3149   -1509.3149 
     140   -13272.648   -13272.648    -13343.79    -13343.79    137.63001    137.63001    66226.686    66226.686   -1329.5477   -1329.5477 
     141     -13272.5     -13272.5   -13343.046   -13343.046    136.47724    136.47724    66214.553    66214.553   -1155.6577   -1155.6577 
     142   -13272.351   -13272.351   -13342.448   -13342.448    135.60844    135.60844    66202.379    66202.379   -989.20389   -989.20389 
     143     -13272.2     -13272.2       -13342       -13342     135.0325     135.0325    66190.178    66190.178   -830.10416   -830.10416 
     144   -13272.049   -13272.049   -13341.705   -13341.705    134.75477    134.75477    66177.963    66177.963   -678.85112   -678.85112 
     145   -13271.895   -13271.895   -13341.563   -13341.563    134.77695    134.77695    66165.748    66165.748   -534.84988   -534.84988 
     146    -13271.74    -13271.74   -13341.573   -13341.573    135.09713    135.09713    66153.545    66153.545   -398.33491   -398.33491 
     147   -13271.583   -13271.583   -13341.733   -13341.733    135.71006    135.71006    66141.365    66141.365   -269.96145   -269.96145 
     148   -13271.423   -13271.423   -13342.037   -13342.037    136.60713    136.60713    66129.218    66129.218   -148.74173   -148.74173 
     149   -13271.261   -13271.261   -13342.479   -13342.479    137.77647    137.77647    66117.116    66117.116   -34.509385   -34.509385 
     150   -13271.096   -13271.096   -13343.052   -13343.052    139.20308    139.20308    66105.067    66105.067    72.431215    72.431215 
     151   -13270.929   -13270.929   -13343.746   -13343.746    140.86908    140.86908    66093.081    66093.081    172.90825    172.90825 
     152   -13270.758   -13270.758   -13344.549   -13344.549    142.75387    142.75387    66081.165    66081.165    266.95334    266.95334 
     153   -13270.585   -13270.585   -13345.451   -13345.451    144.83448    144.83448    66069.327    66069.327      355.074      355.074 
     154   -13270.408   -13270.408   -13346.439   -13346.439    147.08588    147.08588    66057.575    66057.575    438.76604    438.76604 
     155   -13270.228   -13270.228   -13347.497   -13347.497    149.48135    149.48135    66045.915    66045.915    517.68097    517.68097 
     156   -13270.045   -13270.045   -13348.612   -13348.612     151.9929     151.9929    66034.354    66034.354    593.62627    593.62627 
     157   -13269.859   -13269.859   -13349.769   -13349.769     154.5916     154.5916    66022.897    66022.897    667.14832    667.14832 
     158    -13269.67    -13269.67   -13350.953   -13350.953    157.24791    157.24791     66011.55     66011.55    738.96829    738.96829 
     159   -13269.477   -13269.477   -13352.148   -13352.148    159.93202    159.93202    66000.319    66000.319    809.29818    809.29818 
     160   -13269.281   -13269.281   -13353.338   -13353.338    162.61431    162.61431    65989.209    65989.209    879.77218    879.77218 
     161   -13269.082   -13269.082    -13354.51    -13354.51    165.26555    165.26555    65978.226    65978.226    950.39508    950.39508 
     162   -13268.881   -13268.881   -13355.648   -13355.648    167.85725    167.85725    65967.375    65967.375    1022.0036    1022.0036 
     163   -13268.676   -13268.676   -13356.739   -13356.739     170.3621     170.3621    65956.661    65956.661    1094.8931    1094.8931 
     164    -13268.47    -13268.47   -13357.768   -13357.768    172.75412    172.75412     65946.09     65946.09     1168.978     1168.978 
     165    -13268.26    -13268.26   -13358.725   -13358.725      175.009      175.009    65935.667    65935.667    1244.9445    1244.9445 
     166   -13268.049   -13268.049   -13359.596   -13359.596    177.10447    177.10447    65925.397    65925.397    1323.3981    1323.3981 
     167   -13267.836   -13267.836   -13360.373   -13360.373    179.02057    179.02057    65915.288    65915.288    1405.2469    1405.2469 
     168   -13267.621   -13267.621   -13361.047   -13361.047    180.73983    180.73983    65905.343    65905.343    1490.6422    1490.6422 
     169   -13267.404   -13267.404    -13361.61    -13361.61    182.24746    182.24746     65895.57     65895.57    1579.6824    1579.6824 
     170   -13267.186   -13267.186   -13362.056   -13362.056    183.53133    183.53133    65885.975    65885.975    1671.7844    1671.7844 
     171   -13266.968   -13266.968    -13362.38    -13362.38     184.5821     184.5821    65876.564    65876.564    1767.7232    1767.7232 
     172   -13266.748   -13266.748    -13362.58    -13362.58    185.39342    185.39342    65867.344    65867.344    1867.6425    1867.6425 
     173   -13266.528   -13266.528   -13362.654   -13362.654    185.96185    185.96185    65858.323    65858.323    1971.5347    1971.5347 
     174   -13266.308   -13266.308   -13362.601   -13362.601    186.28688    186.28688    65849.508    65849.508    2079.4168    2079.4168 
     175   -13266.087   -13266.087   -13362.424   -13362.424     186.3711     186.3711    65840.906    65840.906    2191.2341    2191.2341 
     176   -13265.867   -13265.867   -13362.126   -13362.126    186.22009    186.22009    65832.525    65832.525    2306.6589    2306.6589 
     177   -13265.647   -13265.647    -13361.71    -13361.71    185.84218    185.84218    65824.374    65824.374    2425.6111    2425.6111 
     178   -13265.427   -13265.427   -13361.184   -13361.184    185.24821    185.24821     65816.46     65816.46    2547.4154    2547.4154 
     179   -13265.208   -13265.208   -13360.553   -13360.553     184.4515     184.4515    65808.793    65808.793    2671.5802    2671.5802 
     180    -13264.99    -13264.99   -13359.826   -13359.826    183.46766    183.46766     65801.38     65801.38    2797.8775    2797.8775 
     181   -13264.773   -13264.773   -13359.013   -13359.013    182.31436    182.31436     65794.23     65794.23    2925.8363    2925.8363 
     182   -13264.557   -13264.557   -13358.123   -13358.123    181.01116    181.01116    65787.353    65787.353    3053.2602    3053.2602 
     183   -13264.342   -13264.342   -13357.168   -13357.168    179.57935    179.57935    65780.757    65780.757     3180.318     3180.318 
     184   -13264.128   -13264.128    -13356.16    -13356.16    178.04147    178.04147     65774.45     65774.45    3306.8921    3306.8921 
     185   -13263.916   -13263.916    -13355.11    -13355.11    176.42095    176.42095    65768.442    65768.442    3431.6789    3431.6789 
     186   -13263.706   -13263.706   -13354.032   -13354.032    174.74187    174.74187    65762.739    65762.739    3554.3042    3554.3042 
     187   -13263.497   -13263.497   -13352.938   -13352.938    173.02885    173.02885    65757.351    65757.351    3674.7011    3674.7011 
     188    -13263.29    -13263.29    -13351.84    -13351.84    171.30672    171.30672    65752.286    65752.286    3792.3192    3792.3192 
     189   -13263.084   -13263.084   -13350.752   -13350.752    169.60014    169.60014     65747.55     65747.55    3905.6679    3905.6679 
     190    -13262.88    -13262.88   -13349.687   -13349.687    167.93323    167.93323    65743.152    65743.152    4013.9162    4013.9162 
     191   -13262.678   -13262.678   -13348.656   -13348.656    166.32935    166.32935    65739.097    65739.097    4117.3642    4117.3642 
     192   -13262.478   -13262.478    -13347.67    -13347.67    164.81085    164.81085    65735.392    65735.392     4215.095     4215.095 
     193   -13262.279   -13262.279   -13346.742   -13346.742     163.3988     163.3988    65732.044    65732.044    4306.1457    4306.1457 
     194   -13262.082   -13262.082    -13345.88    -13345.88    162.11293    162.11293    65729.057    65729.057    4389.8004    4389.8004 
     195   -13261.886   -13261.886   -13345.094   -13345.094    160.97122    160.97122    65726.436    65726.436    4466.8452    4466.8452 
     196   -13261.691   -13261.691   -13344.392   -13344.392    159.98974    159.98974    65724.186    65724.186    4535.3853    4535.3853 
     197   -13261.498   -13261.498   -13343.781   -13343.781     159.1824     159.1824    65722.309    65722.309     4595.605     4595.605 
     198   -13261.306   -13261.306   -13343.268   -13343.268    158.56075    158.56075    65720.809    65720.809    4646.9933    4646.9933 
     199   -13261.115   -13261.115   -13342.856   -13342.856    158.13376    158.13376    65719.687    65719.687    4689.3319    4689.3319 
     200   -13260.925   -13260.925   -13342.549   -13342.549    157.90783    157.90783    65718.946    65718.946    4722.1189    4722.1189 
     201   -13260.736   -13260.736   -13342.349   -13342.349    157.88668    157.88668    65718.585    65718.585    4745.6044    4745.6044 
     202   -13260.547   -13260.547   -13342.256   -13342.256    158.07137    158.07137    65718.605    65718.605    4758.7696    4758.7696 
     203   -13260.358   -13260.358   -13342.268   -13342.268    158.46029    158.46029    65719.004    65719.004    4762.2283    4762.2283 
     204    -13260.17    -13260.17   -13342.384   -13342.384    159.04937    159.04937    65719.782    65719.782    4756.5753    4756.5753 
     205   -13259.981   -13259.981     -13342.6     -13342.6    159.83215    159.83215    65720.935    65720.935    4741.4273    4741.4273 
     206   -13259.792   -13259.792   -13342.912   -13342.912    160.79976    160.79976    65722.461    65722.461    4717.6009    4717.6009 
     207   -13259.603   -13259.603   -13343.312   -13343.312    161.94107    161.94107    65724.356    65724.356    4685.2345    4685.2345 
     208   -13259.413   -13259.413   -13343.795   -13343.795    163.24276    163.24276    65726.615    65726.615    4644.6829    4644.6829 
     209   -13259.223   -13259.223   -13344.353   -13344.353    164.68962    164.68962    65729.234    65729.234    4595.8469    4595.8469 
     210   -13259.032   -13259.032   -13344.976   -13344.976    166.26456    166.26456    65732.207    65732.207     4539.873     4539.873 
     211   -13258.839   -13258.839   -13345.654   -13345.654    167.94893    167.94893    65735.528    65735.528    4477.4813    4477.4813 
     212   -13258.646   -13258.646   -13346.378   -13346.378    169.72293    169.72293     65739.19     65739.19    4409.6912    4409.6912 
     213   -13258.451   -13258.451   -13347.136   -13347.136    171.56596    171.56596    65743.185    65743.185    4336.0015    4336.0015 
     214   -13258.255   -13258.255   -13347.917   -13347.917    173.45688    173.45688    65747.508    65747.508    4257.4139    4257.4139 
     215   -13258.058   -13258.058   -13348.711   -13348.711    175.37418    175.37418    65752.149    65752.149    4174.6561    4174.6561 
     216   -13257.859   -13257.859   -13349.506   -13349.506    177.29636    177.29636    65757.102    65757.102    4087.6209    4087.6209 
     217    -13257.66    -13257.66   -13350.291   -13350.291    179.20209    179.20209    65762.357    65762.357    3997.5242    3997.5242 
     218   -13257.458   -13257.458   -13351.056   -13351.056    181.07058    181.07058    65767.905    65767.905    3904.2454    3904.2454 
     219   -13257.256   -13257.256    -13351.79    -13351.79    182.88186    182.88186    65773.739    65773.739    3808.0054    3808.0054 
     220   -13257.052   -13257.052   -13352.483   -13352.483    184.61704    184.61704    65779.849    65779.849    3710.3132    3710.3132 
     221   -13256.848   -13256.848   -13353.127   -13353.127    186.25856    186.25856    65786.226    65786.226    3610.8043    3610.8043 
     222   -13256.642   -13256.642   -13353.713   -13353.713    187.79028    187.79028    65792.861    65792.861    3511.4242    3511.4242 
     223   -13256.435   -13256.435   -13354.233   -13354.233    189.19767    189.19767    65799.745    65799.745      3411.97      3411.97 
     224   -13256.227   -13256.227   -13354.682   -13354.682    190.46804    190.46804    65806.868    65806.868    3313.7603    3313.7603 
     225   -13256.019   -13256.019   -13355.054   -13355.054    191.59054    191.59054    65814.223    65814.223    3216.1923    3216.1923 
     226    -13255.81    -13255.81   -13355.345   -13355.345    192.55643    192.55643    65821.799    65821.799    3119.2911    3119.2911 
     227   -13255.601   -13255.601    -13355.55    -13355.55    193.35896    193.35896    65829.589    65829.589    3023.1073    3023.1073 
     228   -13255.391   -13255.391   -13355.669   -13355.669    193.99343    193.99343    65837.583    65837.583    2928.4328    2928.4328 
     229   -13255.181   -13255.181   -13355.699   -13355.699    194.45743    194.45743    65845.773    65845.773    2834.7885    2834.7885 
     230   -13254.971   -13254.971    -13355.64    -13355.64    194.75069    194.75069     65854.15     65854.15    2742.3207    2742.3207 
     231   -13254.761   -13254.761   -13355.495   -13355.495    194.87507    194.87507    65862.707    65862.707    2651.3287    2651.3287 
     232   -13254.552   -13254.552   -13355.264   -13355.264    194.83454    194.83454    65871.435    65871.435    2560.9352    2560.9352 
     233   -13254.342   -13254.342   -13354.951   -13354.951    194.63492    194.63492    65880.326    65880.326    2472.1187    2472.1187 
     234   -13254.133   -13254.133   -13354.561   -13354.561    194.28372    194.28372    65889.372    65889.372     2383.955     2383.955 
     235   -13253.924   -13253.924   -13354.097   -13354.097    193.78995    193.78995    65898.566    65898.566    2296.2271    2296.2271 
     236   -13253.716   -13253.716   -13353.565   -13353.565    193.16403    193.16403    65907.899    65907.899    2208.8803    2208.8803 
     237   -13253.508   -13253.508   -13352.971   -13352.971    192.41769    192.41769    65917.364    65917.364    2122.1929    2122.1929 
     238   -13253.301   -13253.301   -13352.323   -13352.323    191.56389    191.56389    65926.954    65926.954    2035.3618    2035.3618 
     239   -13253.094   -13253.094   -13351.626   -13351.626    190.61669    190.61669    65936.659    65936.659    1949.4689    1949.4689 
     240   -13252.888   -13252.888    -13350.89    -13350.89    189.59093    189.59093    65946.474    65946.474    1862.9419    1862.9419 
     241   -13252.683   -13252.683   -13350.122   -13350.122     188.5021     188.5021    65956.391    65956.391    1776.7029    1776.7029 
     242   -13252.478   -13252.478    -13349.33    -13349.33    187.36634    187.36634    65966.401    65966.401    1690.1343    1690.1343 
     243   -13252.273   -13252.273   -13348.522   -13348.522    186.20002    186.20002    65976.498    65976.498     1602.675     1602.675 
     244   -13252.069   -13252.069   -13347.708   -13347.708    185.01955    185.01955    65986.674    65986.674    1513.5512    1513.5512 
     245   -13251.866   -13251.866   -13346.895   -13346.895    183.84126    183.84126    65996.922    65996.922    1423.0684    1423.0684 
     246   -13251.662   -13251.662   -13346.092   -13346.092    182.68112    182.68112    66007.232    66007.232    1331.5047    1331.5047 
     247   -13251.459   -13251.459   -13345.307   -13345.307    181.55469    181.55469    66017.599    66017.599    1237.3892    1237.3892 
     248   -13251.256   -13251.256   -13344.547   -13344.547    180.47679    180.47679    66028.014    66028.014    1141.8387    1141.8387 
     249   -13251.054   -13251.054   -13343.819   -13343.819    179.46131    179.46131    66038.468    66038.468    1043.5924    1043.5924 
     250   -13250.851   -13250.851    -13343.13    -13343.13    178.52109    178.52109    66048.954    66048.954    943.09998    943.09998 
     251   -13250.647   -13250.647   -13342.486   -13342.486    177.66777    177.66777    66059.463    66059.463    840.95282    840.95282 
     252   -13250.444   -13250.444   -13341.892   -13341.892    176.91169    176.91169    66069.986    66069.986    736.74631    736.74631 
     253    -13250.24    -13250.24   -13341.352   -13341.352    176.26177    176.26177    66080.516    66080.516    631.10483    631.10483 
     254   -13250.036   -13250.036    -13340.87    -13340.87    175.72559    175.72559    66091.043    66091.043    524.16974    524.16974 
     255    -13249.83    -13249.83    -13340.45    -13340.45    175.30939    175.30939    66101.559    66101.559    415.31475    415.31475 
     256   -13249.624   -13249.624   -13340.093   -13340.093    175.01798    175.01798    66112.054    66112.054     304.9724     304.9724 
     257   -13249.417   -13249.417   -13339.801   -13339.801    174.85469    174.85469    66122.521    66122.521    192.48545    192.48545 
     258   -13249.209   -13249.209   -13339.576   -13339.576    174.82141    174.82141    66132.949    66132.949     77.50869     77.50869 
     259   -13248.999   -13248.999   -13339.417   -13339.417    174.91845    174.91845    66143.329    66143.329   -39.410051   -39.410051 
     260   -13248.789   -13248.789   -13339.323   -13339.323    175.14459    175.14459    66153.653    66153.653   -158.82035   -158.82035 
     261   -13248.576   -13248.576   -13339.293   -13339.293    175.49699    175.49699     66163.91     66163.91   -280.16411   -280.16411 
     262   -13248.363   -13248.363   -13339.324   -13339.324    175.97118    175.97118    66174.092    66174.092   -403.00047   -403.00047 
     263   -13248.147   -13248.147   -13339.414   -13339.414    176.56122    176.56122    66184.187    66184.187   -526.38121   -526.38121 
     264    -13247.93    -13247.93   -13339.558   -13339.558    177.25984    177.25984    66194.188    66194.188   -650.52496   -650.52496 
     265   -13247.711   -13247.711   -13339.752   -13339.752    178.05862    178.05862    66204.084    66204.084   -775.28401   -775.28401 
     266    -13247.49    -13247.49    -13339.99    -13339.99    178.94808    178.94808    66213.865    66213.865   -899.98727   -899.98727 
     267   -13247.268   -13247.268   -13340.269   -13340.269    179.91771    179.91771    66223.522    66223.522   -1023.7553   -1023.7553 
     268   -13247.043   -13247.043   -13340.581   -13340.581    180.95617    180.95617    66233.045    66233.045    -1147.617    -1147.617 
     269   -13246.817   -13246.817   -13340.921   -13340.921    182.05128    182.05128    66242.425    66242.425    -1270.732    -1270.732 
     270   -13246.588   -13246.588   -13341.282   -13341.282    183.19029    183.19029    66251.652    66251.652    -1392.623    -1392.623 
     271   -13246.358   -13246.358   -13341.656   -13341.656    184.36009    184.36009    66260.718    66260.718   -1513.4727   -1513.4727 
     272   -13246.127   -13246.127   -13342.038   -13342.038    185.54744    185.54744    66269.614    66269.614   -1632.3484   -1632.3484 
     273   -13245.893   -13245.893   -13342.421   -13342.421    186.73922    186.73922     66278.33     66278.33   -1748.6669   -1748.6669 
     274   -13245.658   -13245.658   -13342.798   -13342.798    187.92238    187.92238    66286.858    66286.858   -1862.4235   -1862.4235 
     275   -13245.422   -13245.422   -13343.162   -13343.162    189.08409    189.08409    66295.189    66295.189   -1973.0599   -1973.0599 
     276   -13245.184   -13245.184   -13343.507   -13343.507    190.21192    190.21192    66303.317    66303.317   -2080.1521   -2080.1521 
     277   -13244.945   -13244.945   -13343.827   -13343.827    191.29393    191.29393    66311.232    66311.232   -2183.2868   -2183.2868 
     278   -13244.706   -13244.706   -13344.117   -13344.117    192.31902    192.31902    66318.928    66318.928   -2281.9884   -2281.9884 
     279   -13244.465   -13244.465   -13344.372   -13344.372    193.27697    193.27697    66326.398    66326.398   -2375.7041   -2375.7041 
     280   -13244.223   -13244.223   -13344.586   -13344.586     194.1584     194.1584    66333.636    66333.636    -2465.219    -2465.219 
     281   -13243.981   -13243.981   -13344.755   -13344.755    194.95487    194.95487    66340.635    66340.635   -2549.0574   -2549.0574 
     282   -13243.739   -13243.739   -13344.877   -13344.877    195.65901    195.65901     66347.39     66347.39   -2627.2276   -2627.2276 
     283   -13243.496   -13243.496   -13344.947   -13344.947    196.26478    196.26478    66353.895    66353.895   -2699.8526   -2699.8526 
     284   -13243.253   -13243.253   -13344.964   -13344.964    196.76744    196.76744    66360.147    66360.147   -2766.2774   -2766.2774 
     285    -13243.01    -13243.01   -13344.926   -13344.926    197.16367    197.16367    66366.141    66366.141   -2826.7382   -2826.7382 
     286   -13242.767   -13242.767   -13344.832   -13344.832    197.45163    197.45163    66371.873    66371.873   -2880.6743   -2880.6743 
     287   -13242.525   -13242.525   -13344.683   -13344.683    197.63089    197.63089    66377.341    66377.341   -2928.9678   -2928.9678 
     288   -13242.283   -13242.283   -13344.478   -13344.478    197.70216    197.70216    66382.542    66382.542    -2971.496    -2971.496 
     289   -13242.042   -13242.042   -13344.219   -13344.219    197.66717    197.66717    66387.474    66387.474   -3008.1891   -3008.1891 
     290   -13241.802   -13241.802   -13343.907   -13343.907    197.52896    197.52896    66392.136    66392.136   -3039.2923   -3039.2923 
     291   -13241.562   -13241.562   -13343.545   -13343.545    197.29198    197.29198    66396.526    66396.526   -3064.5245   -3064.5245 
     292   -13241.324   -13241.324   -13343.136   -13343.136    196.96199    196.96199    66400.643    66400.643   -3084.0612   -3084.0612 
     293   -13241.086   -13241.086   -13342.683   -13342.683    196.54592    196.54592    66404.488    66404.488   -3098.6682   -3098.6682 
     294   -13240.849   -13240.849   -13342.191   -13342.191    196.05171    196.05171    66408.061    66408.061   -3108.7551   -3108.7551 
     295   -13240.614   -13240.614   -13341.664   -13341.664    195.48807    195.48807    66411.362    66411.362   -3114.4732   -3114.4732 
     296    -13240.38    -13240.38   -13341.107   -13341.107    194.86449    194.86449    66414.393    66414.393   -3116.6147   -3116.6147 
     297   -13240.147   -13240.147   -13340.526   -13340.526    194.19117    194.19117    66417.154    66417.154   -3115.0718   -3115.0718 
     298   -13239.915   -13239.915   -13339.926   -13339.926    193.47867    193.47867    66419.647    66419.647   -3111.1132   -3111.1132 
     299   -13239.684   -13239.684   -13339.312   -13339.312    192.73774    192.73774    66421.874    66421.874   -3103.6689   -3103.6689 
     300   -13239.454   -13239.454   -13338.691   -13338.691     191.9794     191.9794    66423.837    66423.837   -3093.8308   -3093.8308 
     301   -13239.226   -13239.226   -13338.067   -13338.067    191.21483    191.21483    66425.538    66425.538   -3080.9139   -3080.9139 
     302   -13238.998   -13238.998   -13337.447   -13337.447    190.45521    190.45521    66426.979    66426.979   -3065.1876   -3065.1876 
     303   -13238.772   -13238.772   -13336.836   -13336.836    189.71153    189.71153    66428.163    66428.163   -3047.2725   -3047.2725 
     304   -13238.547   -13238.547    -13336.24    -13336.24    188.99445    188.99445    66429.093    66429.093   -3027.5733   -3027.5733 
     305   -13238.322   -13238.322   -13335.664   -13335.664    188.31426    188.31426    66429.771    66429.771   -3006.0328   -3006.0328 
     306   -13238.099   -13238.099   -13335.113   -13335.113    187.68096    187.68096    66430.201    66430.201    -2983.494    -2983.494 
     307   -13237.876   -13237.876   -13334.592   -13334.592    187.10409    187.10409    66430.385    66430.385    -2959.802    -2959.802 
     308   -13237.654   -13237.654   -13334.105   -13334.105    186.59254    186.59254    66430.328    66430.328   -2935.5695   -2935.5695 
     309   -13237.432   -13237.432   -13333.657   -13333.657    186.15429    186.15429    66430.031    66430.031   -2909.4024   -2909.4024 
     310   -13237.211   -13237.211   -13333.251   -13333.251    185.79619    185.79619    66429.498    66429.498   -2883.2301   -2883.2301 
     311    -13236.99    -13236.99    -13332.89    -13332.89    185.52408    185.52408    66428.733    66428.733   -2856.0213   -2856.0213 
     312    -13236.77    -13236.77   -13332.575   -13332.575    185.34281    185.34281    66427.738    66427.738   -2828.9173   -2828.9173 
     313   -13236.549   -13236.549    -13332.31    -13332.31     185.2563     185.2563    66426.518    66426.518   -2800.9025   -2800.9025 
     314   -13236.329   -13236.329   -13332.096   -13332.096    185.26751    185.26751    66425.075    66425.075   -2772.6323   -2772.6323 
     315   -13236.109   -13236.109   -13331.933   -13331.933    185.37825    185.37825    66423.413    66423.413   -2744.2924   -2744.2924 
     316   -13235.888   -13235.888   -13331.821   -13331.821    185.58923    185.58923    66421.534    66421.534   -2716.0459   -2716.0459 
     317   -13235.667   -13235.667   -13331.761   -13331.761    185.90024    185.90024    66419.444    66419.444   -2688.2159   -2688.2159 
     318   -13235.446   -13235.446   -13331.752   -13331.752    186.31006    186.31006    66417.143    66417.143   -2660.2506   -2660.2506 
     319   -13235.225   -13235.225   -13331.792   -13331.792    186.81641    186.81641    66414.637    66414.637   -2632.0982   -2632.0982 
     320   -13235.003   -13235.003    -13331.88    -13331.88    187.41592    187.41592    66411.928    66411.928   -2604.2702   -2604.2702 
     321    -13234.78    -13234.78   -13332.013   -13332.013    188.10434    188.10434    66409.019    66409.019   -2575.3299   -2575.3299 
     322   -13234.557   -13234.557   -13332.189   -13332.189    188.87662    188.87662    66405.913    66405.913   -2546.0805   -2546.0805 
     323   -13234.333   -13234.333   -13332.405   -13332.405    189.72693    189.72693    66402.614    66402.614    -2516.382    -2516.382 
     324   -13234.108   -13234.108   -13332.656   -13332.656    190.64874    190.64874    66399.125    66399.125   -2486.4237   -2486.4237 
     325   -13233.882   -13233.882    -13332.94    -13332.94    191.63491    191.63491    66395.449    66395.449   -2455.7845   -2455.7845 
     326   -13233.656   -13233.656   -13333.253   -13333.253    192.67764    192.67764     66391.59     66391.59   -2424.6662   -2424.6662 
     327   -13233.428   -13233.428   -13333.589   -13333.589    193.76847    193.76847    66387.551    66387.551   -2392.1866   -2392.1866 
     328     -13233.2     -13233.2   -13333.945   -13333.945    194.89848    194.89848    66383.335    66383.335    -2359.628    -2359.628 
     329    -13232.97    -13232.97   -13334.315   -13334.315    196.05846    196.05846    66378.945    66378.945   -2326.1899   -2326.1899 
     330    -13232.74    -13232.74   -13334.695   -13334.695    197.23893    197.23893    66374.386    66374.386   -2291.2211   -2291.2211 
     331   -13232.509   -13232.509    -13335.08    -13335.08    198.43038    198.43038    66369.661    66369.661   -2254.7207   -2254.7207 
     332   -13232.277   -13232.277   -13335.465   -13335.465    199.62329    199.62329    66364.773    66364.773   -2216.1891   -2216.1891 
     333   -13232.044   -13232.044   -13335.844   -13335.844    200.80823    200.80823    66359.726    66359.726   -2174.9678   -2174.9678 
     334    -13231.81    -13231.81   -13336.214   -13336.214    201.97602    201.97602    66354.524    66354.524   -2130.1809   -2130.1809 
     335   -13231.576   -13231.576    -13336.57    -13336.57    203.11783    203.11783    66349.172    66349.172   -2082.0337   -2082.0337 
     336   -13231.341   -13231.341   -13336.907   -13336.907     204.2254     204.2254    66343.674    66343.674   -2030.7491   -2030.7491 
     337   -13231.104   -13231.104   -13337.222   -13337.222    205.29097    205.29097    66338.035    66338.035   -1975.9311   -1975.9311 
     338   -13230.868   -13230.868    -13337.51    -13337.51    206.30717    206.30717     66332.26     66332.26    -1917.219    -1917.219 
     339    -13230.63    -13230.63   -13337.769   -13337.769    207.26698    207.26698    66326.354    66326.354   -1854.1181   -1854.1181 
     340   -13230.393   -13230.393   -13337.995   -13337.995      208.164      208.164    66320.323    66320.323   -1787.3062   -1787.3062 
     341   -13230.154   -13230.154   -13338.185   -13338.185    208.99271    208.99271    66314.172    66314.172   -1716.1851   -1716.1851 
     342   -13229.915   -13229.915   -13338.337   -13338.337    209.74842    209.74842    66307.909    66307.909   -1641.4528   -1641.4528 
     343   -13229.676   -13229.676   -13338.448   -13338.448    210.42723    210.42723    66301.539    66301.539   -1562.6265   -1562.6265 
     344   -13229.436   -13229.436   -13338.518   -13338.518    211.02624    211.02624     66295.07     66295.07   -1480.5166   -1480.5166 
     345   -13229.196   -13229.196   -13338.546   -13338.546    211.54355    211.54355    66288.508    66288.508   -1394.9989   -1394.9989 
     346   -13228.956   -13228.956    -13338.53    -13338.53    211.97805    211.97805    66281.861    66281.861   -1305.5347   -1305.5347 
     347   -13228.716   -13228.716   -13338.471   -13338.471    212.32952    212.32952    66275.136    66275.136    -1213.086    -1213.086 
     348   -13228.475   -13228.475    -13338.37    -13338.37    212.59867    212.59867    66268.342    66268.342   -1117.1116   -1117.1116 
     349   -13228.234   -13228.234   -13338.226   -13338.226    212.78717    212.78717    66261.486    66261.486   -1017.5579   -1017.5579 
     350   -13227.993   -13227.993   -13338.042   -13338.042     212.8975     212.8975    66254.576    66254.576   -915.42961   -915.42961 
     351   -13227.752   -13227.752    -13337.82    -13337.82    212.93305    212.93305    66247.622    66247.622   -810.85455   -810.85455 
     352   -13227.511   -13227.511   -13337.561   -13337.561     212.8982     212.8982    66240.631    66240.631   -704.54464   -704.54464 
     353    -13227.27    -13227.27   -13337.268   -13337.268    212.79819    212.79819    66233.613    66233.613   -596.96805   -596.96805 
     354   -13227.029   -13227.029   -13336.944   -13336.944    212.63896    212.63896    66226.576    66226.576    -487.9489    -487.9489 
     355   -13226.788   -13226.788   -13336.594   -13336.594      212.427      212.427    66219.529    66219.529   -377.53292   -377.53292 
     356   -13226.546   -13226.546   -13336.219   -13336.219    212.16927    212.16927    66212.481    66212.481   -266.82533   -266.82533 
     357   -13226.305   -13226.305   -13335.825   -13335.825    211.87325    211.87325    66205.441    66205.441   -155.64183   -155.64183 
     358   -13226.064   -13226.064   -13335.415   -13335.415    211.54666    211.54666    66198.419    66198.419   -44.794878   -44.794878 
     359   -13225.823   -13225.823   -13334.993   -13334.993    211.19713    211.19713    66191.421    66191.421    65.807281    65.807281 
     360   -13225.582   -13225.582   -13334.563   -13334.563    210.83235    210.83235    66184.459    66184.459    176.83247    176.83247 
     361   -13225.341   -13225.341    -13334.13    -13334.13    210.45993    210.45993     66177.54     66177.54    287.53395    287.53395 
     362   -13225.099   -13225.099   -13333.696   -13333.696    210.08725    210.08725    66170.673    66170.673    397.90994    397.90994 
     363   -13224.858   -13224.858   -13333.265   -13333.265    209.72142    209.72142    66163.867    66163.867     506.6973     506.6973 
     364   -13224.616   -13224.616   -13332.842   -13332.842    209.36939    209.36939     66157.13     66157.13    613.41429    613.41429 
     365   -13224.375   -13224.375   -13332.429   -13332.429     209.0378     209.0378     66150.47     66150.47    718.70835    718.70835 
     366   -13224.133   -13224.133   -13332.029   -13332.029    208.73276    208.73276    66143.896    66143.896    821.79829    821.79829 
     367   -13223.891   -13223.891   -13331.646   -13331.646    208.45979    208.45979    66137.416    66137.416    921.96633    921.96633 
     368   -13223.649   -13223.649   -13331.282   -13331.282    208.22357    208.22357    66131.037    66131.037    1019.3486    1019.3486 
     369   -13223.407   -13223.407   -13330.939   -13330.939      208.028      208.028    66124.766    66124.766    1114.1775    1114.1775 
     370   -13223.164   -13223.164   -13330.618   -13330.618    207.87641    207.87641    66118.611    66118.611    1206.6924    1206.6924 
     371   -13222.921   -13222.921   -13330.321   -13330.321    207.77173    207.77173    66112.579    66112.579    1296.1139    1296.1139 
     372   -13222.678   -13222.678   -13330.049   -13330.049    207.71647    207.71647    66106.676    66106.676    1382.7847    1382.7847 
     373   -13222.434   -13222.434   -13329.803   -13329.803    207.71254    207.71254    66100.908    66100.908    1467.0196    1467.0196 
     374    -13222.19    -13222.19   -13329.585   -13329.585    207.76134    207.76134    66095.283    66095.283    1548.6439    1548.6439 
     375   -13221.946   -13221.946   -13329.393   -13329.393    207.86386    207.86386    66089.805    66089.805    1626.7331    1626.7331 
     376   -13221.701   -13221.701    -13329.23    -13329.23    208.02069    208.02069     66084.48     66084.48    1701.2888    1701.2888 
     377   -13221.456   -13221.456   -13329.094   -13329.094    208.23187    208.23187    66079.314    66079.314    1771.9956    1771.9956 
     378   -13221.211   -13221.211   -13328.985   -13328.985    208.49699    208.49699    66074.311    66074.311     1838.821     1838.821 
     379   -13220.965   -13220.965   -13328.904   -13328.904    208.81522    208.81522    66069.477    66069.477    1902.8927    1902.8927 
     380   -13220.718   -13220.718   -13328.849   -13328.849    209.18541    209.18541    66064.815    66064.815    1962.4645    1962.4645 
     381   -13220.472   -13220.472   -13328.819   -13328.819    209.60605    209.60605     66060.33     66060.33    2019.5363    2019.5363 
     382   -13220.224   -13220.224   -13328.815   -13328.815    210.07513    210.07513    66056.026    66056.026    2073.2547    2073.2547 
     383   -13219.977   -13219.977   -13328.833   -13328.833    210.59011    210.59011    66051.905    66051.905    2123.1842    2123.1842 
     384   -13219.729   -13219.729   -13328.873   -13328.873     211.1479     211.1479    66047.972    66047.972    2170.5721    2170.5721 
     385    -13219.48    -13219.48   -13328.933   -13328.933    211.74483    211.74483    66044.229    66044.229    2214.2901    2214.2901 
     386   -13219.231   -13219.231   -13329.011   -13329.011    212.37679    212.37679    66040.679    66040.679    2254.8608    2254.8608 
     387   -13218.982   -13218.982   -13329.104   -13329.104    213.03949    213.03949    66037.324    66037.324    2292.1276    2292.1276 
     388   -13218.732   -13218.732   -13329.211   -13329.211    213.72827    213.72827    66034.167    66034.167    2326.8548    2326.8548 
     389   -13218.482   -13218.482   -13329.328   -13329.328    214.43795    214.43795    66031.209    66031.209    2358.2869    2358.2869 
     390   -13218.232   -13218.232   -13329.452   -13329.452     215.1631     215.1631    66028.453    66028.453    2386.5668    2386.5668 
     391   -13217.981   -13217.981   -13329.582   -13329.582    215.89827    215.89827    66025.899    66025.899    2412.6018    2412.6018 
     392    -13217.73    -13217.73   -13329.713   -13329.713    216.63793    216.63793    66023.549    66023.549    2436.1968    2436.1968 
     393   -13217.479   -13217.479   -13329.844   -13329.844    217.37634    217.37634    66021.405    66021.405    2456.7226    2456.7226 
     394   -13217.228   -13217.228    -13329.97    -13329.97    218.10774    218.10774    66019.466    66019.466    2475.2679    2475.2679 
     395   -13216.977   -13216.977   -13330.091   -13330.091    218.82632    218.82632    66017.734    66017.734    2491.0035    2491.0035 
     396   -13216.725   -13216.725   -13330.201   -13330.201    219.52633    219.52633    66016.209    66016.209    2505.3111    2505.3111 
     397   -13216.474   -13216.474   -13330.299   -13330.299    220.20215    220.20215    66014.891    66014.891    2517.5278    2517.5278 
     398   -13216.222   -13216.222   -13330.381   -13330.381    220.84849    220.84849    66013.781    66013.781    2528.1694    2528.1694 
     399   -13215.971   -13215.971   -13330.446   -13330.446    221.46051    221.46051    66012.879    66012.879    2536.5217    2536.5217 
     400   -13215.719   -13215.719   -13330.491   -13330.491    222.03368    222.03368    66012.184    66012.184    2543.3435    2543.3435 
     401   -13215.468   -13215.468   -13330.514   -13330.514    222.56411    222.56411    66011.697    66011.697    2549.3905    2549.3905 
     402   -13215.217   -13215.217   -13330.514   -13330.514     223.0486     223.0486    66011.417    66011.417    2552.8048    2552.8048 
     403   -13214.967   -13214.967   -13330.488   -13330.488    223.48448    223.48448    66011.343    66011.343    2553.6769    2553.6769 
     404   -13214.717   -13214.717   -13330.437   -13330.437    223.86964    223.86964    66011.476    66011.476    2553.2783    2553.2783 
     405   -13214.467   -13214.467    -13330.36    -13330.36    224.20269    224.20269    66011.814    66011.814    2551.5475    2551.5475 
     406   -13214.217   -13214.217   -13330.255   -13330.255    224.48302    224.48302    66012.357    66012.357    2549.3851    2549.3851 
     407   -13213.968   -13213.968   -13330.124   -13330.124    224.71068    224.71068    66013.103    66013.103    2545.9933    2545.9933 
     408    -13213.72    -13213.72   -13329.966   -13329.966    224.88632    224.88632    66014.052    66014.052    2542.0064    2542.0064 
     409   -13213.472   -13213.472   -13329.782   -13329.782    225.01103    225.01103    66015.203    66015.203    2536.2158    2536.2158 
     410   -13213.224   -13213.224   -13329.574   -13329.574    225.08639    225.08639    66016.554    66016.554    2529.0448    2529.0448 
     411   -13212.978   -13212.978   -13329.342   -13329.342    225.11457    225.11457    66018.105    66018.105     2520.566     2520.566 
     412   -13212.731   -13212.731   -13329.087   -13329.087    225.09853    225.09853    66019.854    66019.854    2509.9769    2509.9769 
     413   -13212.486   -13212.486   -13328.812   -13328.812     225.0419     225.0419      66021.8      66021.8    2497.1163    2497.1163 
     414   -13212.241   -13212.241   -13328.519   -13328.519    224.94853    224.94853    66023.941    66023.941    2482.4145    2482.4145 
     415   -13211.997   -13211.997    -13328.21    -13328.21    224.82254    224.82254    66026.275    66026.275     2465.305     2465.305 
     416   -13211.753   -13211.753   -13327.886   -13327.886    224.66819    224.66819      66028.8      66028.8      2445.26      2445.26 
     417    -13211.51    -13211.51   -13327.551   -13327.551    224.48985    224.48985    66031.515    66031.515     2423.766     2423.766 
     418   -13211.267   -13211.267   -13327.206   -13327.206    224.29193    224.29193    66034.416    66034.416    2400.2752    2400.2752 
     419   -13211.026   -13211.026   -13326.854   -13326.854    224.07872    224.07872    66037.502    66037.502    2374.5617    2374.5617 
     420   -13210.784   -13210.784   -13326.497   -13326.497    223.85442    223.85442    66040.771    66040.771    2347.3075    2347.3075 
     421   -13210.543   -13210.543   -13326.137   -13326.137    223.62328    223.62328    66044.218    66044.218     2317.576     2317.576 
     422   -13210.303   -13210.303   -13325.776   -13325.776    223.38956    223.38956    66047.841    66047.841    2286.8559    2286.8559 
     423   -13210.063   -13210.063   -13325.416   -13325.416    223.15725    223.15725    66051.638    66051.638    2253.7993    2253.7993 
     424   -13209.824   -13209.824   -13325.059   -13325.059    222.93007    222.93007    66055.606    66055.606    2219.4997    2219.4997 
     425   -13209.585   -13209.585   -13324.707   -13324.707     222.7118     222.7118     66059.74     66059.74    2182.7622    2182.7622 
     426   -13209.346   -13209.346   -13324.362   -13324.362    222.50615    222.50615    66064.038    66064.038    2144.4653    2144.4653 
     427   -13209.107   -13209.107   -13324.025   -13324.025    222.31652    222.31652    66068.497    66068.497    2104.0439    2104.0439 
     428   -13208.869   -13208.869   -13323.699   -13323.699    222.14594    222.14594    66073.111    66073.111    2061.0195    2061.0195 
     429   -13208.631   -13208.631   -13323.383   -13323.383    221.99709    221.99709    66077.879    66077.879    2016.2984    2016.2984 
     430   -13208.392   -13208.392   -13323.081   -13323.081    221.87245    221.87245    66082.795    66082.795    1969.0216    1969.0216 
     431   -13208.154   -13208.154   -13322.792   -13322.792    221.77424    221.77424    66087.855    66087.855    1919.5273    1919.5273 
     432   -13207.916   -13207.916   -13322.518   -13322.518    221.70433    221.70433    66093.056    66093.056    1868.0048    1868.0048 
     433   -13207.678   -13207.678   -13322.259   -13322.259    221.66431    221.66431    66098.392    66098.392    1814.9798    1814.9798 
     434    -13207.44    -13207.44   -13322.016   -13322.016    221.65546    221.65546    66103.859    66103.859    1760.7762    1760.7762 
     435   -13207.201   -13207.201    -13321.79    -13321.79    221.67873    221.67873    66109.453    66109.453    1705.1872    1705.1872 
     436   -13206.963   -13206.963    -13321.58    -13321.58     221.7349     221.7349    66115.168    66115.168    1648.0983    1648.0983 
     437   -13206.724   -13206.724   -13321.387   -13321.387    221.82452    221.82452    66120.999    66120.999    1589.0853    1589.0853 
     438   -13206.484   -13206.484   -13321.212   -13321.212    221.94775    221.94775    66126.942    66126.942    1527.6254    1527.6254 
     439   -13206.245   -13206.245   -13321.053   -13321.053    222.10445    222.10445    66132.991    66132.991    1464.4346    1464.4346 
     440   -13206.005   -13206.005   -13320.911   -13320.911    222.29411    222.29411    66139.142    66139.142    1399.5763    1399.5763 
     441   -13205.764   -13205.764   -13320.785   -13320.785     222.5159     222.5159    66145.387    66145.387    1333.0114    1333.0114 
     442   -13205.523   -13205.523   -13320.675   -13320.675    222.76878    222.76878    66151.723    66151.723    1265.8571    1265.8571 
     443   -13205.282   -13205.282    -13320.58    -13320.58    223.05173    223.05173    66158.143    66158.143    1197.2604    1197.2604 
     444    -13205.04    -13205.04   -13320.499   -13320.499    223.36365    223.36365    66164.641    66164.641    1127.1538    1127.1538 
     445   -13204.797   -13204.797   -13320.432   -13320.432    223.70318    223.70318    66171.212    66171.212    1055.4809    1055.4809 
     446   -13204.554   -13204.554   -13320.378   -13320.378    224.06868    224.06868    66177.849    66177.849    983.00271    983.00271 
     447   -13204.311   -13204.311   -13320.336   -13320.336    224.45824    224.45824    66184.547    66184.547    909.30322    909.30322 
     448   -13204.066   -13204.066   -13320.304   -13320.304    224.86987    224.86987    66191.299    66191.299    835.15712    835.15712 
     449   -13203.821   -13203.821   -13320.282   -13320.282    225.30145    225.30145    66198.099    66198.099    759.80857    759.80857 
     450   -13203.576   -13203.576   -13320.269   -13320.269    225.75038    225.75038    66204.942    66204.942    683.64429    683.64429 
     451   -13203.329   -13203.329   -13320.262   -13320.262    226.21393    226.21393     66211.82     66211.82    606.76847    606.76847 
     452   -13203.082   -13203.082   -13320.261   -13320.261    226.68936    226.68936    66218.728    66218.728    528.83756    528.83756 
     453   -13202.835   -13202.835   -13320.264   -13320.264    227.17377    227.17377    66225.659    66225.659    450.04367    450.04367 
     454   -13202.587   -13202.587   -13320.269   -13320.269    227.66437    227.66437    66232.607    66232.607    371.86313    371.86313 
     455   -13202.338   -13202.338   -13320.275   -13320.275     228.1584     228.1584    66239.565    66239.565     294.0457     294.0457 
     456   -13202.088   -13202.088   -13320.282   -13320.282    228.65304    228.65304    66246.526    66246.526     216.7706     216.7706 
     457   -13201.838   -13201.838   -13320.286   -13320.286     229.1453     229.1453    66253.486    66253.486    140.35881    140.35881 
     458   -13201.588   -13201.588   -13320.287   -13320.287    229.63222    229.63222    66260.436    66260.436    65.080198    65.080198 
     459   -13201.337   -13201.337   -13320.284   -13320.284    230.11097    230.11097    66267.372    66267.372   -9.0765279   -9.0765279 
     460   -13201.085   -13201.085   -13320.274   -13320.274    230.57883    230.57883    66274.288    66274.288   -81.690271   -81.690271 
     461   -13200.833   -13200.833   -13320.257   -13320.257    231.03342    231.03342    66281.177    66281.177   -152.99876   -152.99876 
     462   -13200.581   -13200.581   -13320.232   -13320.232    231.47257    231.47257    66288.033    66288.033   -222.69989   -222.69989 
     463   -13200.328   -13200.328   -13320.197   -13320.197    231.89436    231.89436    66294.852    66294.852   -290.94275   -290.94275 
     464   -13200.075   -13200.075   -13320.152   -13320.152     232.2971     232.2971    66301.628    66301.628   -357.39393   -357.39393 
     465   -13199.821   -13199.821   -13320.096   -13320.096    232.67946    232.67946    66308.355    66308.355   -422.21279   -422.21279 
     466   -13199.567   -13199.567   -13320.029   -13320.029    233.04049    233.04049    66315.029    66315.029   -485.83762   -485.83762 
     467   -13199.313   -13199.313    -13319.95    -13319.95    233.37948    233.37948    66321.643    66321.643   -546.87285   -546.87285 
     468   -13199.059   -13199.059   -13319.859   -13319.859    233.69612    233.69612    66328.194    66328.194   -606.39773   -606.39773 
     469   -13198.805   -13198.805   -13319.757   -13319.757    233.99045    233.99045    66334.677    66334.677    -664.5069    -664.5069 
     470    -13198.55    -13198.55   -13319.644   -13319.644    234.26268    234.26268    66341.088    66341.088   -721.03946   -721.03946 
     471   -13198.296   -13198.296   -13319.519   -13319.519    234.51339    234.51339    66347.421    66347.421   -776.60182   -776.60182 
     472   -13198.041   -13198.041   -13319.383   -13319.383    234.74335    234.74335    66353.673    66353.673   -830.06821   -830.06821 
     473   -13197.787   -13197.787   -13319.237   -13319.237    234.95363    234.95363    66359.839    66359.839   -881.90308   -881.90308 
     474   -13197.532   -13197.532   -13319.082   -13319.082    235.14564    235.14564    66365.915    66365.915   -931.87587   -931.87587 
     475   -13197.278   -13197.278   -13318.918   -13318.918    235.32091    235.32091    66371.898    66371.898   -979.91835   -979.91835 
     476   -13197.023   -13197.023   -13318.746   -13318.746    235.48106    235.48106    66377.785    66377.785   -1027.3303   -1027.3303 
     477   -13196.769   -13196.769   -13318.567   -13318.567    235.62789    235.62789     66383.57     66383.57   -1073.6792   -1073.6792 
     478   -13196.514   -13196.514   -13318.383   -13318.383    235.76316    235.76316    66389.251    66389.251   -1118.8819   -1118.8819 
     479    -13196.26    -13196.26   -13318.193   -13318.193    235.88848    235.88848    66394.825    66394.825   -1162.1605   -1162.1605 
     480   -13196.006   -13196.006       -13318       -13318    236.00541    236.00541    66400.289    66400.289   -1203.8255   -1203.8255 
     481   -13195.752   -13195.752   -13317.802   -13317.802    236.11546    236.11546    66405.638    66405.638   -1244.8087   -1244.8087 
     482   -13195.498   -13195.498   -13317.603   -13317.603    236.22011    236.22011     66410.87     66410.87   -1284.8061   -1284.8061 
     483   -13195.244   -13195.244   -13317.401   -13317.401    236.32085    236.32085    66415.983    66415.983   -1324.7422   -1324.7422 
     484    -13194.99    -13194.99   -13317.198   -13317.198    236.41896    236.41896    66420.973    66420.973   -1364.2852   -1364.2852 
     485   -13194.737   -13194.737   -13316.994   -13316.994     236.5157     236.5157    66425.838    66425.838   -1403.4393   -1403.4393 
     486   -13194.483   -13194.483   -13316.791   -13316.791    236.61229    236.61229    66430.574    66430.574    -1442.499    -1442.499 
     487    -13194.23    -13194.23   -13316.588   -13316.588    236.70987    236.70987    66435.179    66435.179   -1481.0429   -1481.0429 
     488   -13193.977   -13193.977   -13316.386   -13316.386    236.80941    236.80941     66439.65     66439.65   -1518.8252   -1518.8252 
     489   -13193.724   -13193.724   -13316.186   -13316.186    236.91201    236.91201    66443.984    66443.984   -1556.0982   -1556.0982 
     490   -13193.471   -13193.471   -13315.989   -13315.989    237.01894    237.01894    66448.179    66448.179   -1591.9559   -1591.9559 
     491   -13193.218   -13193.218   -13315.794   -13315.794    237.13146    237.13146    66452.233    66452.233   -1627.3504   -1627.3504 
     492   -13192.966   -13192.966   -13315.603   -13315.603     237.2508     237.2508    66456.141    66456.141    -1661.766    -1661.766 
     493   -13192.713   -13192.713   -13315.417   -13315.417    237.37801    237.37801    66459.903    66459.903   -1694.8089   -1694.8089 
     494   -13192.461   -13192.461   -13315.235   -13315.235    237.51398    237.51398    66463.517    66463.517   -1727.1262   -1727.1262 
     495   -13192.209   -13192.209   -13315.058   -13315.058    237.65945    237.65945    66466.978    66466.978   -1758.0352   -1758.0352 
     496   -13191.957   -13191.957   -13314.886   -13314.886    237.81512    237.81512    66470.287    66470.287   -1787.2908   -1787.2908 
     497   -13191.705   -13191.705    -13314.72    -13314.72    237.98158    237.98158     66473.44     66473.44   -1815.5244   -1815.5244 
     498   -13191.453   -13191.453    -13314.56    -13314.56    238.15911    238.15911    66476.436    66476.436   -1842.8671   -1842.8671 
     499   -13191.201   -13191.201   -13314.406   -13314.406     238.3478     238.3478    66479.273    66479.273   -1869.6577   -1869.6577 
     500    -13190.95    -13190.95   -13314.258   -13314.258    238.54777    238.54777     66481.95     66481.95   -1895.5377   -1895.5377 
     501   -13190.699   -13190.699   -13314.116   -13314.116    238.75915    238.75915    66484.464    66484.464   -1920.1737   -1920.1737 
     502   -13190.447   -13190.447    -13313.98    -13313.98    238.98194    238.98194    66486.814    66486.814   -1942.5033   -1942.5033 
     503   -13190.196   -13190.196    -13313.85    -13313.85    239.21593    239.21593    66488.999    66488.999   -1963.2867   -1963.2867 
     504   -13189.945   -13189.945   -13313.725   -13313.725    239.46088    239.46088    66491.017    66491.017   -1982.5701   -1982.5701 
     505   -13189.694   -13189.694   -13313.607   -13313.607    239.71641    239.71641    66492.868    66492.868   -1999.9689   -1999.9689 
     506   -13189.444   -13189.444   -13313.493   -13313.493    239.98216    239.98216     66494.55     66494.55   -2016.5747   -2016.5747 
     507   -13189.193   -13189.193   -13313.385   -13313.385    240.25761    240.25761    66496.063    66496.063   -2031.2478   -2031.2478 
     508   -13188.943   -13188.943   -13313.282   -13313.282    240.54206    240.54206    66497.405    66497.405   -2045.1847   -2045.1847 
     509   -13188.693   -13188.693   -13313.183   -13313.183    240.83472    240.83472    66498.577    66498.577    -2056.777    -2056.777 
     510   -13188.443   -13188.443   -13313.088   -13313.088    241.13474    241.13474    66499.577    66499.577   -2066.2769   -2066.2769 
     511   -13188.193   -13188.193   -13312.997   -13312.997    241.44139    241.44139    66500.405    66500.405   -2073.2037   -2073.2037 
     512   -13187.943   -13187.943   -13312.909   -13312.909    241.75433    241.75433    66501.062    66501.062   -2077.6574   -2077.6574 
     513   -13187.694   -13187.694   -13312.824   -13312.824    242.07354    242.07354    66501.547    66501.547   -2080.7671   -2080.7671 
     514   -13187.444   -13187.444   -13312.743   -13312.743     242.3989     242.3989     66501.86     66501.86   -2082.6003   -2082.6003 
     515   -13187.195   -13187.195   -13312.665   -13312.665    242.73012    242.73012    66502.003    66502.003   -2081.3282   -2081.3282 
     516   -13186.946   -13186.946    -13312.59    -13312.59    243.06683    243.06683    66501.974    66501.974   -2078.0326   -2078.0326 
     517   -13186.698   -13186.698   -13312.519   -13312.519    243.40872    243.40872    66501.776    66501.776    -2072.927    -2072.927 
     518   -13186.449   -13186.449   -13312.449   -13312.449    243.75563    243.75563    66501.409    66501.409   -2065.2408   -2065.2408 
     519   -13186.201   -13186.201   -13312.383   -13312.383    244.10748    244.10748    66500.873    66500.873   -2055.6132   -2055.6132 
     520   -13185.953   -13185.953   -13312.319   -13312.319    244.46434    244.46434    66500.171    66500.171    -2043.608    -2043.608 
     521   -13185.705   -13185.705   -13312.258   -13312.258    244.82632    244.82632    66499.304    66499.304   -2028.7755   -2028.7755 
     522   -13185.457   -13185.457   -13312.201   -13312.201    245.19361    245.19361    66498.273    66498.273   -2012.5886   -2012.5886 
     523    -13185.21    -13185.21   -13312.146   -13312.146    245.56629    245.56629     66497.08     66497.08   -1993.9616   -1993.9616 
     524   -13184.962   -13184.962   -13312.094   -13312.094    245.94429    245.94429    66495.727    66495.727   -1972.8793   -1972.8793 
     525   -13184.715   -13184.715   -13312.045   -13312.045    246.32735    246.32735    66494.216    66494.216   -1949.7593   -1949.7593 
     526   -13184.468   -13184.468   -13311.998   -13311.998    246.71469    246.71469    66492.549    66492.549   -1926.1473   -1926.1473 
     527   -13184.222   -13184.222   -13311.953   -13311.953    247.10524    247.10524    66490.729    66490.729   -1900.7135   -1900.7135 
[...]
   19871   -13138.433   -13138.433   -13289.503   -13289.503     292.2562     292.2562    66487.287    66487.287   -114.36555   -114.36555 
   19872   -13138.469   -13138.469   -13289.559   -13289.559    292.29416    292.29416    66484.948    66484.948   -88.976299   -88.976299 
   19873   -13138.504   -13138.504     -13289.6     -13289.6    292.30483    292.30483    66482.599    66482.599   -62.641794   -62.641794 
   19874   -13138.539   -13138.539   -13289.626   -13289.626    292.28899    292.28899    66480.243    66480.243   -35.653739   -35.653739 
   19875   -13138.574   -13138.574    -13289.64    -13289.64    292.24819    292.24819    66477.883    66477.883   -8.4939064   -8.4939064 
   19876   -13138.608   -13138.608   -13289.641   -13289.641     292.1847     292.1847    66475.519    66475.519     19.48566     19.48566 
   19877   -13138.642   -13138.642   -13289.632   -13289.632    292.10084    292.10084    66473.155    66473.155    47.987406    47.987406 
   19878   -13138.676   -13138.676   -13289.613   -13289.613    291.99886    291.99886    66470.793    66470.793    78.474097    78.474097 
   19879   -13138.709   -13138.709   -13289.586   -13289.586    291.88142    291.88142    66468.435    66468.435    109.89623    109.89623 
   19880   -13138.742   -13138.742   -13289.552   -13289.552    291.75167    291.75167    66466.084    66466.084    141.99058    141.99058 
   19881   -13138.775   -13138.775   -13289.513   -13289.513    291.61303    291.61303    66463.742    66463.742    173.73338    173.73338 
   19882   -13138.807   -13138.807    -13289.47    -13289.47    291.46894    291.46894    66461.413    66461.413    204.46475    204.46475 
   19883   -13138.839   -13138.839   -13289.427   -13289.427    291.32318    291.32318    66459.098    66459.098    233.83298    233.83298 
   19884    -13138.87    -13138.87   -13289.384   -13289.384    291.17987    291.17987      66456.8      66456.8    261.65775    261.65775 
   19885   -13138.901   -13138.901   -13289.345   -13289.345    291.04311    291.04311    66454.522    66454.522    289.59061    289.59061 
   19886   -13138.932   -13138.932    -13289.31    -13289.31    290.91691    290.91691    66452.265    66452.265    317.49107    317.49107 
   19887   -13138.962   -13138.962   -13289.282   -13289.282     290.8051     290.8051    66450.032    66450.032    344.48943    344.48943 
   19888   -13138.991   -13138.991   -13289.263   -13289.263    290.71135    290.71135    66447.826    66447.826    370.05307    370.05307 
   19889   -13139.021   -13139.021   -13289.255   -13289.255    290.63892    290.63892    66445.647    66445.647    395.23417    395.23417 
   19890   -13139.049   -13139.049   -13289.259   -13289.259    290.59041    290.59041      66443.5      66443.5    419.00102    419.00102 
   19891   -13139.078   -13139.078   -13289.276   -13289.276    290.56811    290.56811    66441.384    66441.384    441.53309    441.53309 
   19892   -13139.106   -13139.106   -13289.307   -13289.307    290.57406    290.57406    66439.303    66439.303    461.82963    461.82963 
   19893   -13139.133   -13139.133   -13289.353   -13289.353    290.60986    290.60986    66437.257    66437.257    480.47672    480.47672 
   19894    -13139.16    -13139.16   -13289.415   -13289.415    290.67688    290.67688     66435.25     66435.25    497.74245    497.74245 
   19895   -13139.187   -13139.187   -13289.493   -13289.493    290.77613    290.77613    66433.281    66433.281    513.19743    513.19743 
   19896   -13139.213   -13139.213   -13289.587   -13289.587    290.90814    290.90814    66431.352    66431.352    528.54137    528.54137 
   19897   -13139.239   -13139.239   -13289.698   -13289.698    291.07283    291.07283    66429.465    66429.465    543.79235    543.79235 
   19898   -13139.265   -13139.265   -13289.826   -13289.826    291.26943    291.26943     66427.62     66427.62    557.67223    557.67223 
   19899   -13139.291   -13139.291   -13289.968   -13289.968    291.49623    291.49623    66425.819    66425.819    570.36811    570.36811 
   19900   -13139.316   -13139.316   -13290.125   -13290.125    291.75078    291.75078    66424.064    66424.064    581.90706    581.90706 
   19901   -13139.341   -13139.341   -13290.294   -13290.294    292.03042    292.03042    66422.355    66422.355    592.99853    592.99853 
   19902   -13139.365   -13139.365   -13290.475   -13290.475    292.33212    292.33212    66420.692    66420.692    602.82529    602.82529 
   19903    -13139.39    -13139.39   -13290.665   -13290.665    292.65222    292.65222    66419.077    66419.077    613.16851    613.16851 
   19904   -13139.414   -13139.414   -13290.862   -13290.862    292.98646    292.98646    66417.511    66417.511    623.57367    623.57367 
   19905   -13139.438   -13139.438   -13291.064   -13291.064    293.33015    293.33015    66415.995    66415.995    633.82945    633.82945 
   19906   -13139.462   -13139.462   -13291.268   -13291.268    293.67846    293.67846    66414.529    66414.529    644.01337    644.01337 
   19907   -13139.487   -13139.487   -13291.472   -13291.472    294.02625    294.02625    66413.114    66413.114    653.38403    653.38403 
   19908   -13139.511   -13139.511   -13291.673   -13291.673    294.36832    294.36832    66411.752    66411.752     662.7071     662.7071 
   19909   -13139.535   -13139.535   -13291.868   -13291.868    294.69953    294.69953    66410.442    66410.442    672.33721    672.33721 
   19910   -13139.559   -13139.559   -13292.055   -13292.055    295.01471    295.01471    66409.186    66409.186    681.23761    681.23761 
   19911   -13139.583   -13139.583   -13292.232   -13292.232    295.30911    295.30911    66407.985    66407.985    689.82201    689.82201 
   19912   -13139.608   -13139.608   -13292.396   -13292.396    295.57863    295.57863    66406.839    66406.839    698.72239    698.72239 
   19913   -13139.632   -13139.632   -13292.545   -13292.545    295.81969    295.81969    66405.749    66405.749     707.7883     707.7883 
   19914   -13139.657   -13139.657   -13292.678   -13292.678    296.02941    296.02941    66404.716    66404.716    717.44938    717.44938 
   19915   -13139.682   -13139.682   -13292.794   -13292.794    296.20567    296.20567    66403.741    66403.741    726.79301    726.79301 
   19916   -13139.707   -13139.707   -13292.892   -13292.892    296.34703    296.34703    66402.824    66402.824    736.16686    736.16686 
   19917   -13139.732   -13139.732   -13292.972   -13292.972    296.45256    296.45256    66401.967    66401.967    745.61433    745.61433 
   19918   -13139.757   -13139.757   -13293.033   -13293.033    296.52173    296.52173    66401.169    66401.169    754.79405    754.79405 
   19919   -13139.783   -13139.783   -13293.075   -13293.075    296.55427    296.55427    66400.433    66400.433     763.7875     763.7875 
   19920   -13139.809   -13139.809   -13293.099   -13293.099    296.55033    296.55033    66399.759    66399.759    772.49641    772.49641 
   19921   -13139.835   -13139.835   -13293.105   -13293.105    296.51063    296.51063    66399.147    66399.147    780.61763    780.61763 
   19922   -13139.862   -13139.862   -13293.093   -13293.093    296.43599    296.43599    66398.598    66398.598    789.65837    789.65837 
   19923   -13139.888   -13139.888   -13293.063   -13293.063    296.32729    296.32729    66398.113    66398.113    798.91279    798.91279 
   19924   -13139.915   -13139.915   -13293.017   -13293.017    296.18564    296.18564    66397.693    66397.693    808.00678    808.00678 
   19925   -13139.942   -13139.942   -13292.954   -13292.954    296.01247    296.01247    66397.339    66397.339    818.38206    818.38206 
   19926   -13139.969   -13139.969   -13292.876   -13292.876    295.80937    295.80937    66397.052    66397.052    828.88319    828.88319 
   19927   -13139.996   -13139.996   -13292.784   -13292.784     295.5777     295.5777    66396.832    66396.832    839.47432    839.47432 
   19928   -13140.024   -13140.024   -13292.677   -13292.677     295.3189     295.3189     66396.68     66396.68    848.38402    848.38402 
   19929   -13140.051   -13140.051   -13292.558   -13292.558    295.03471    295.03471    66396.598    66396.598    856.59922    856.59922 
   19930   -13140.078   -13140.078   -13292.426   -13292.426    294.72737    294.72737    66396.585    66396.585    865.05592    865.05592 
   19931   -13140.106   -13140.106   -13292.284   -13292.284    294.39958    294.39958    66396.644    66396.644    873.90999    873.90999 
   19932   -13140.133   -13140.133   -13292.133   -13292.133    294.05424    294.05424    66396.773    66396.773    882.04386    882.04386 
   19933   -13140.161   -13140.161   -13291.975   -13291.975    293.69467    293.69467    66396.975    66396.975    890.67729    890.67729 
   19934   -13140.188   -13140.188   -13291.811   -13291.811    293.32457    293.32457    66397.251    66397.251    898.07205    898.07205 
   19935   -13140.215   -13140.215   -13291.643   -13291.643    292.94818    292.94818    66397.599    66397.599    903.91548    903.91548 
   19936   -13140.242   -13140.242   -13291.475   -13291.475    292.56981    292.56981    66398.022    66398.022    908.53047    908.53047 
   19937   -13140.269   -13140.269   -13291.307   -13291.307     292.1935     292.1935     66398.52     66398.52    911.03116    911.03116 
   19938   -13140.295   -13140.295   -13291.142   -13291.142    291.82346    291.82346    66399.093    66399.093    913.34917    913.34917 
   19939   -13140.321   -13140.321   -13290.982   -13290.982    291.46403    291.46403    66399.741    66399.741    915.25353    915.25353 
   19940   -13140.347   -13140.347    -13290.83    -13290.83    291.11924    291.11924    66400.464    66400.464    915.25971    915.25971 
   19941   -13140.373   -13140.373   -13290.687   -13290.687     290.7929     290.7929    66401.264    66401.264    913.98806    913.98806 
   19942   -13140.398   -13140.398   -13290.555   -13290.555    290.48861    290.48861    66402.138    66402.138    911.44831    911.44831 
   19943   -13140.423   -13140.423   -13290.435   -13290.435    290.20938    290.20938    66403.088    66403.088     906.2319     906.2319 
   19944   -13140.447   -13140.447   -13290.329   -13290.329    289.95779    289.95779    66404.113    66404.113    899.46779    899.46779 
   19945   -13140.471   -13140.471   -13290.239   -13290.239    289.73603    289.73603    66405.213    66405.213    889.89503    889.89503 
   19946   -13140.494   -13140.494   -13290.164   -13290.164    289.54571    289.54571    66406.387    66406.387    877.61244    877.61244 
   19947   -13140.517   -13140.517   -13290.105   -13290.105    289.38783    289.38783    66407.633    66407.633    862.70675    862.70675 
   19948    -13140.54    -13140.54   -13290.063   -13290.063     289.2629     289.2629    66408.952    66408.952    845.52805    845.52805 
   19949   -13140.562   -13140.562   -13290.037   -13290.037    289.17098    289.17098    66410.341    66410.341    826.06721    826.06721 
   19950   -13140.583   -13140.583   -13290.028   -13290.028    289.11151    289.11151    66411.798    66411.798    804.50639    804.50639 
   19951   -13140.604   -13140.604   -13290.035   -13290.035    289.08334    289.08334    66413.324    66413.324    780.72138    780.72138 
   19952   -13140.625   -13140.625   -13290.056   -13290.056    289.08459    289.08459    66414.914    66414.914    755.74387    755.74387 
   19953   -13140.645   -13140.645    -13290.09    -13290.09    289.11267    289.11267    66416.568    66416.568    729.12428    729.12428 
   19954   -13140.664   -13140.664   -13290.137   -13290.137    289.16456    289.16456    66418.284    66418.284    700.99042    700.99042 
   19955   -13140.683   -13140.683   -13290.193   -13290.193    289.23717    289.23717    66420.059    66420.059    671.00476    671.00476 
   19956   -13140.702   -13140.702   -13290.258   -13290.258    289.32707    289.32707     66421.89     66421.89    640.45908    640.45908 
   19957   -13140.719   -13140.719   -13290.329   -13290.329    289.43057    289.43057    66423.775    66423.775    609.59626    609.59626 
   19958   -13140.737   -13140.737   -13290.405   -13290.405    289.54373    289.54373    66425.713    66425.713    578.95022    578.95022 
   19959   -13140.754   -13140.754   -13290.484   -13290.484    289.66231    289.66231      66427.7      66427.7     548.3055     548.3055 
   19960    -13140.77    -13140.77   -13290.562   -13290.562    289.78221    289.78221    66429.734    66429.734    517.50903    517.50903 
   19961   -13140.786   -13140.786   -13290.639   -13290.639    289.89955    289.89955    66431.812    66431.812    487.57797    487.57797 
   19962   -13140.802   -13140.802   -13290.712   -13290.712    290.01082    290.01082    66433.932    66433.932     457.9958     457.9958 
   19963   -13140.817   -13140.817    -13290.78    -13290.78    290.11303    290.11303    66436.092    66436.092    427.59486    427.59486 
   19964   -13140.832   -13140.832   -13290.841   -13290.841    290.20358    290.20358     66438.29     66438.29    397.93125    397.93125 
   19965   -13140.846   -13140.846   -13290.895   -13290.895       290.28       290.28    66440.522    66440.522    368.73677    368.73677 
   19966    -13140.86    -13140.86    -13290.94    -13290.94     290.3398     290.3398    66442.787    66442.787      339.733      339.733 
   19967   -13140.874   -13140.874   -13290.974   -13290.974     290.3804     290.3804    66445.082    66445.082    311.05147    311.05147 
   19968   -13140.887   -13140.887   -13290.997   -13290.997    290.39949    290.39949    66447.405    66447.405     281.7839     281.7839 
   19969   -13140.899   -13140.899   -13291.008   -13291.008    290.39545    290.39545    66449.753    66449.753    252.35781    252.35781 
   19970   -13140.912   -13140.912   -13291.006   -13291.006     290.3672     290.3672    66452.124    66452.124    221.95335    221.95335 
   19971   -13140.923   -13140.923    -13290.99    -13290.99     290.3139     290.3139    66454.517    66454.517    191.78885    191.78885 
   19972   -13140.935   -13140.935   -13290.961   -13290.961     290.2351     290.2351    66456.927    66456.927    161.34906    161.34906 
   19973   -13140.946   -13140.946   -13290.918   -13290.918    290.13079    290.13079    66459.353    66459.353    131.81761    131.81761 
   19974   -13140.956   -13140.956   -13290.861   -13290.861    290.00139    290.00139    66461.792    66461.792    100.79248    100.79248 
   19975   -13140.967   -13140.967   -13290.792   -13290.792    289.84746    289.84746    66464.243    66464.243    69.574842    69.574842 
   19976   -13140.976   -13140.976    -13290.71    -13290.71    289.66975    289.66975    66466.701    66466.701    37.723733    37.723733 
   19977   -13140.986   -13140.986   -13290.616   -13290.616    289.46917    289.46917    66469.165    66469.165    5.3671759    5.3671759 
   19978   -13140.994   -13140.994   -13290.509   -13290.509    289.24683    289.24683    66471.633    66471.633   -26.881408   -26.881408 
   19979   -13141.003   -13141.003   -13290.392   -13290.392    289.00436    289.00436      66474.1      66474.1   -58.678386   -58.678386 
   19980    -13141.01    -13141.01   -13290.265   -13290.265    288.74376    288.74376    66476.566    66476.566   -90.180994   -90.180994 
   19981   -13141.018   -13141.018    -13290.13    -13290.13    288.46733    288.46733    66479.026    66479.026   -121.38168   -121.38168 
   19982   -13141.024   -13141.024   -13289.986   -13289.986    288.17765    288.17765    66481.479    66481.479   -151.73186   -151.73186 
   19983    -13141.03    -13141.03   -13289.837   -13289.837    287.87751    287.87751    66483.923    66483.923   -181.54646   -181.54646 
   19984   -13141.035   -13141.035   -13289.684   -13289.684    287.56989    287.56989    66486.354    66486.354   -209.86935   -209.86935 
   19985    -13141.04    -13141.04   -13289.527   -13289.527    287.25785    287.25785     66488.77     66488.77   -235.71209   -235.71209 
   19986   -13141.044   -13141.044   -13289.369   -13289.369    286.94432    286.94432     66491.17     66491.17   -260.38437   -260.38437 
   19987   -13141.048   -13141.048   -13289.211   -13289.211    286.63232    286.63232    66493.551    66493.551   -284.21011   -284.21011 
   19988    -13141.05    -13141.05   -13289.055   -13289.055    286.32505    286.32505    66495.911    66495.911   -306.98132   -306.98132 
   19989   -13141.052   -13141.052   -13288.902   -13288.902     286.0257     286.0257    66498.248    66498.248   -328.88736   -328.88736 
   19990   -13141.054   -13141.054   -13288.754   -13288.754    285.73724    285.73724    66500.561    66500.561   -350.95125   -350.95125 
   19991   -13141.054   -13141.054   -13288.613   -13288.613     285.4624     285.4624    66502.847    66502.847   -372.89501   -372.89501 
   19992   -13141.054   -13141.054   -13288.479   -13288.479      285.204      285.204    66505.105    66505.105   -394.32026   -394.32026 
   19993   -13141.052   -13141.052   -13288.354   -13288.354     284.9649     284.9649    66507.334    66507.334   -415.35344   -415.35344 
   19994    -13141.05    -13141.05    -13288.24    -13288.24    284.74808    284.74808     66509.53     66509.53   -436.64032   -436.64032 
   19995   -13141.047   -13141.047   -13288.138   -13288.138    284.55658    284.55658    66511.693    66511.693   -458.33836   -458.33836 
   19996   -13141.044   -13141.044    -13288.05    -13288.05    284.39333    284.39333    66513.821    66513.821   -480.34878   -480.34878 
   19997   -13141.039   -13141.039   -13287.977   -13287.977    284.26102    284.26102    66515.911    66515.911   -502.96159   -502.96159 
   19998   -13141.033   -13141.033    -13287.92    -13287.92    284.16235    284.16235    66517.962    66517.962   -525.97989   -525.97989 
   19999   -13141.027   -13141.027   -13287.881   -13287.881    284.09984    284.09984    66519.973    66519.973   -548.67569   -548.67569 
   20000    -13141.02    -13141.02   -13287.862   -13287.862    284.07545    284.07545     66521.94     66521.94   -571.87362   -571.87362 
Loop time of 9.79641 on 1 procs for 1000 steps with 4000 atoms

Performance: 8.820 ns/day, 2.721 hours/ns, 102.078 timesteps/s
99.7% CPU use with 1 MPI tasks x 1 OpenMP threads

MPI task timing breakdown:
Section |  min time  |  avg time  |  max time  |%varavg| %total
---------------------------------------------------------------
Pair    | 9.5227     | 9.5227     | 9.5227     |   0.0 | 97.21
Neigh   | 0          | 0          | 0          |   0.0 |  0.00
Comm    | 0.035323   | 0.035323   | 0.035323   |   0.0 |  0.36
Output  | 0.048978   | 0.048978   | 0.048978   |   0.0 |  0.50
Modify  | 0.16598    | 0.16598    | 0.16598    |   0.0 |  1.69
Other   |            | 0.02346    |            |       |  0.24

Nlocal:    4000 ave 4000 max 4000 min
Histogram: 1 0 0 0 0 0 0 0 0 0
Nghost:    5841 ave 5841 max 5841 min
Histogram: 1 0 0 0 0 0 0 0 0 0
Neighs:    0 ave 0 max 0 min
Histogram: 1 0 0 0 0 0 0 0 0 0
FullNghs:  426372 ave 426372 max 426372 min
Histogram: 1 0 0 0 0 0 0 0 0 0

Total # of neighbors = 426372
Ave neighs/atom = 106.593
Neighbor list builds = 0
Dangerous builds = 0
if "${V_metal}>${V0_metal_times1000}" then "jump SELF unstable"
if "${T}>${T_low} && ${T}<${T_up} && ${P}>${P_low} && ${P}<${P_up}" then "jump SELF break"
jump SELF break

# Write final averaged volume to file if temperature and volume have converged; otherwise wirte a
# flag to indicate non-convergence.
variable      myStep equal step
if "${myStep} < 2000000" then "print '${V}'  file output/vol_T293.15.out"  else  "print 'not_converged'  file output/vol_T293.15.out"
print '${V}'  file output/vol_T293.15.out
66482.5846019776

print "LAMMPS calculation completed"
LAMMPS calculation completed
quit 0
